LAMMPS data file via write_data, version 2 Aug 2023, timestep = 0, units = metal

6 atoms
5 atom types

0 3.5488465601 xlo xhi
0 3.5488465601 ylo yhi
0 5.1732830798 zlo zhi
-0.0003548847 -5.1733e-06 0.0517328308 xy xz yz

Masses

1 178.49
2 91.224
3 88.90600000000001
4 26.982
5 15.999

Atoms # atomic

1 1 1.7742432511000001 1.8002896955 2.5866415399 0 0 0
2 1 0 1e-10 0 0 0 0
3 5 1.7740668399999997 3.5644008634 1.5554303305000001 0 0 0
4 5 -0.00017847350000000002 1.7847353922000004 1.0312112094 0 0 0
5 5 -0.00018106020000000002 1.8106018076000001 3.6178527493000003 0 0 0
6 5 1.7740642534000006 3.5902672788 4.1420718704 0 0 0

Velocities

1 0 0 0
2 0 0 0
3 0 0 0
4 0 0 0
5 0 0 0
6 0 0 0
