ITEM: TIMESTEP
0
ITEM: NUMBER OF ATOMS
6
ITEM: BOX BOUNDS xy xz yz pp pp pp
-3.6005800000000001e-04 3.5488465600999999e+00 -3.5488469999999999e-04
0.0000000000000000e+00 3.6005793908999997e+00 -5.1733000000000001e-06
0.0000000000000000e+00 5.1732830798000000e+00 5.1732830799999997e-02
ITEM: ATOMS id type xs ys zs fx fy fz
1 1 0.5 0.5 0.5 1.40204e-06 -0.129416 0.00184063
2 1 2.81782e-15 2.81782e-11 0 -1.40095e-06 0.129416 -0.00184063
3 5 0.5 1 0.300666 -1.59681e-06 0.105159 -0.00518781
4 5 1.81996e-11 0.5 0.199334 1.59687e-06 -0.105159 0.00518781
5 5 4.11056e-12 0.5 0.699334 1.3791e-05 0.0376654 -0.000978228
6 5 0.5 1 0.800666 -1.37921e-05 -0.0376654 0.000978228
