ITEM: TIMESTEP
0
ITEM: NUMBER OF ATOMS
6
ITEM: BOX BOUNDS xy xz yz pp pp pp
-3.5488469999999999e-04 3.5311023273000002e+00 -3.5488469999999999e-04
0.0000000000000000e+00 3.5488465600999999e+00 0.0000000000000000e+00
0.0000000000000000e+00 5.1732830798000000e+00 0.0000000000000000e+00
ITEM: ATOMS id type xs ys zs fx fy fz
1 1 0.5 0.5 0.5 -6.9653e-10 -3.89479e-10 -0.111204
2 1 2.66454e-15 2.81782e-11 0 6.96535e-10 -7.00305e-10 0.111204
3 5 0.5 0 0.300666 1.21949e-10 1.03044e-09 0.0279656
4 5 1.41611e-11 0.5 0.199334 -1.22027e-10 1.22077e-10 -0.0279656
5 5 1.41613e-11 0.5 0.699334 5.06211e-10 -3.685e-10 0.0722493
6 5 0.5 0 0.800666 -5.06138e-10 3.05765e-10 -0.0722493
