ITEM: TIMESTEP
0
ITEM: NUMBER OF ATOMS
6
ITEM: BOX BOUNDS xy xz yz pp pp pp
0.0000000000000000e+00 3.5488465600999999e+00 0.0000000000000000e+00
0.0000000000000000e+00 3.5669474520000000e+00 0.0000000000000000e+00
0.0000000000000000e+00 5.1732830798000000e+00 0.0000000000000000e+00
ITEM: ATOMS id type xs ys zs fx fy fz
1 1 0.5 0.5 0.5 -4.98052e-10 1.20066e-10 -0.109029
2 1 0 2.80352e-11 0 4.98053e-10 -1.13377e-09 0.109029
3 5 0.5 0 0.300666 -2.02617e-10 1.05384e-10 0.0679812
4 5 0 0.5 0.199334 2.02617e-10 9.75783e-10 -0.0679812
5 5 0 0.5 0.699334 9.12519e-10 -1.71583e-10 0.0270389
6 5 0.5 0 0.800666 -9.12521e-10 1.04113e-10 -0.0270389
