ITEM: TIMESTEP
0
ITEM: NUMBER OF ATOMS
6
ITEM: BOX BOUNDS xy xz yz pp pp pp
0.0000000000000000e+00 3.5488465600999999e+00 0.0000000000000000e+00
0.0000000000000000e+00 3.5314554375000000e+00 0.0000000000000000e+00
0.0000000000000000e+00 5.1732830798000000e+00 0.0000000000000000e+00
ITEM: ATOMS id type xs ys zs fx fy fz
1 1 0.5 0.5 0.5 -5.04409e-10 -4.26714e-10 0.108949
2 1 0 2.83169e-11 0 5.04409e-10 -7.39164e-10 -0.108949
3 5 0.5 0 0.300666 -2.13471e-10 1.05646e-09 -0.0707554
4 5 0 0.5 0.199334 2.13472e-10 1.57606e-10 0.0707554
5 5 0 0.5 0.699334 9.26649e-10 -3.62721e-10 -0.0273956
6 5 0.5 0 0.800666 -9.26646e-10 3.14532e-10 0.0273956
