ITEM: TIMESTEP
0
ITEM: NUMBER OF ATOMS
6
ITEM: BOX BOUNDS xy xz yz pp pp pp
-1.7744232799999999e-02 3.5488465600999999e+00 -1.7744232799999999e-02
0.0000000000000000e+00 3.5484916754000002e+00 0.0000000000000000e+00
0.0000000000000000e+00 5.1732830798000000e+00 0.0000000000000000e+00
ITEM: ATOMS id type xs ys zs fx fy fz
1 1 0.5 0.5 0.5 -4.97107e-10 -8.89287e-10 0.00190878
2 1 1.40905e-13 2.8181e-11 0 4.96822e-10 -2.0231e-10 -0.00190878
3 5 0.5 0 0.300666 -2.03973e-10 1.93963e-09 -0.00124375
4 5 1.40905e-13 0.5 0.199334 1.99991e-10 -7.90707e-10 0.00124375
5 5 1.40905e-13 0.5 0.699334 9.12302e-10 -5.69055e-10 -0.000449137
6 5 0.5 0 0.800666 -9.08032e-10 5.11725e-10 0.000449137
