ITEM: TIMESTEP
0
ITEM: NUMBER OF ATOMS
6
ITEM: BOX BOUNDS xy xz yz pp pp pp
0.0000000000000000e+00 3.5484916754000002e+00 0.0000000000000000e+00
0.0000000000000000e+00 3.5133580945000000e+00 0.0000000000000000e+00
0.0000000000000000e+00 5.1732830798000000e+00 0.0000000000000000e+00
ITEM: ATOMS id type xs ys zs fx fy fz
1 1 0.5 0.5 0.5 -1.01692e-09 -4.71507e-10 0.224633
2 1 0 2.84628e-11 0 1.01692e-09 -7.75344e-10 -0.224633
3 5 0.5 0 0.300666 -4.38961e-10 1.09284e-09 -0.14976
4 5 0 0.5 0.199334 4.38961e-10 1.92846e-10 0.14976
5 5 0 0.5 0.699334 1.86972e-09 -3.59441e-10 -0.0559166
6 5 0.5 1 0.800666 -1.86971e-09 3.20606e-10 0.0559166
