ITEM: TIMESTEP
0
ITEM: NUMBER OF ATOMS
6
ITEM: BOX BOUNDS xy xz yz pp pp pp
0.0000000000000000e+00 3.5488465600999999e+00 0.0000000000000000e+00
0.0000000000000000e+00 3.5484916754000002e+00 0.0000000000000000e+00
0.0000000000000000e+00 5.1732830798000000e+00 0.0000000000000000e+00
ITEM: ATOMS id type xs ys zs fx fy fz
1 1 0.5 0.5 0.5 -5.01351e-10 -8.87635e-10 0.00218171
2 1 0 2.8181e-11 0 5.01353e-10 -2.04123e-10 -0.00218171
3 5 0.5 0 0.300666 -2.08175e-10 1.94403e-09 -0.0013845
4 5 0 0.5 0.199334 2.08177e-10 -7.94929e-10 0.0013845
5 5 0 0.5 0.699334 9.19787e-10 -5.7461e-10 -0.000550561
6 5 0.5 0 0.800666 -9.19792e-10 5.17269e-10 0.000550561
