ITEM: TIMESTEP
0
ITEM: NUMBER OF ATOMS
6
ITEM: BOX BOUNDS xy xz yz pp pp pp
0.0000000000000000e+00 3.5665907929000000e+00 1.7744232799999999e-02
0.0000000000000000e+00 3.5488465600999999e+00 0.0000000000000000e+00
0.0000000000000000e+00 5.1732830798000000e+00 0.0000000000000000e+00
ITEM: ATOMS id type xs ys zs fx fy fz
1 1 0.5 0.5 0.5 -5.05591e-10 -3.82792e-10 -0.000272578
2 1 1 2.81782e-11 0 5.05885e-10 -7.07286e-10 0.000272578
3 5 0.5 0 0.300666 -2.09523e-10 1.02738e-09 0.00014543
4 5 1 0.5 0.199334 2.13501e-10 1.20232e-10 -0.00014543
5 5 1 0.5 0.699334 9.21602e-10 -3.72304e-10 9.62374e-05
6 5 0.5 0 0.800666 -9.25872e-10 3.14778e-10 -9.62374e-05
ITEM: TIMESTEP
6
ITEM: NUMBER OF ATOMS
6
ITEM: BOX BOUNDS xy xz yz pp pp pp
0.0000000000000000e+00 3.5665907929000000e+00 1.7744232799999999e-02
0.0000000000000000e+00 3.5488465600999999e+00 0.0000000000000000e+00
0.0000000000000000e+00 5.1732830798000000e+00 0.0000000000000000e+00
ITEM: ATOMS id type xs ys zs fx fy fz
1 1 0.5 0.5 0.499999 3.01092e-12 -3.80063e-12 -1.71287e-14
2 1 7.22089e-12 1.29534e-11 9.30024e-07 -3.19877e-12 2.39086e-11 2.13163e-14
3 5 0.5 1.35443e-11 0.300668 1.21122e-11 -3.15113e-11 1.15195e-11
4 5 7.33579e-12 0.5 0.199332 -1.23465e-11 -2.11456e-11 -1.15271e-11
5 5 6.82032e-12 0.5 0.699334 9.56831e-12 2.48236e-11 -1.14331e-11
6 5 0.5 8.64459e-12 0.800666 -9.14491e-12 7.726e-12 1.1438e-11
