ITEM: TIMESTEP
0
ITEM: NUMBER OF ATOMS
6
ITEM: BOX BOUNDS xy xz yz pp pp pp
0.0000000000000000e+00 3.5839801410000001e+00 3.5133580900000003e-02
0.0000000000000000e+00 3.5488465600999999e+00 0.0000000000000000e+00
0.0000000000000000e+00 5.1732830798000000e+00 0.0000000000000000e+00
ITEM: ATOMS id type xs ys zs fx fy fz
1 1 0.5 0.5 0.5 -6.7007e-10 -3.75206e-10 -0.00106829
2 1 1 2.81782e-11 0 6.70648e-10 -7.14396e-10 0.00106829
3 5 0.5 0 0.300666 1.26916e-10 1.02934e-09 0.000556539
4 5 1.39497e-11 0.5 0.199334 -1.19047e-10 1.17759e-10 -0.000556539
5 5 1.39497e-11 0.5 0.699334 4.74401e-10 -3.69113e-10 0.000390441
6 5 0.5 0 0.800666 -4.82847e-10 3.11616e-10 -0.000390441
