ITEM: TIMESTEP
0
ITEM: NUMBER OF ATOMS
6
ITEM: BOX BOUNDS xy xz yz pp pp pp
-3.5488469999999999e-04 3.5488465600999999e+00 -3.5488469999999999e-04
0.0000000000000000e+00 3.5488465600999999e+00 0.0000000000000000e+00
0.0000000000000000e+00 5.1991494952000004e+00 0.0000000000000000e+00
ITEM: ATOMS id type xs ys zs fx fy fz
1 1 0.5 0.5 0.5 -6.45752e-10 -3.70781e-10 -1.08436e-07
2 1 2.81782e-15 2.81782e-11 0 6.45746e-10 -6.91134e-10 1.08436e-07
3 5 0.5 0 0.300666 1.3389e-10 1.00856e-09 0.0374344
4 5 1.40905e-11 0.5 0.199334 -1.33968e-10 1.13401e-10 -0.0374344
5 5 1.40905e-11 0.5 0.699334 4.59122e-10 -3.6797e-10 -0.0374343
6 5 0.5 0 0.800666 -4.59039e-10 3.07932e-10 0.0374343
