ITEM: TIMESTEP
0
ITEM: NUMBER OF ATOMS
6
ITEM: BOX BOUNDS xy xz yz pp pp pp
0.0000000000000000e+00 3.5488465600999999e+00 0.0000000000000000e+00
0.0000000000000000e+00 3.5492014448000000e+00 0.0000000000000000e+00
0.0000000000000000e+00 5.2250159105999998e+00 0.0000000000000000e+00
ITEM: ATOMS id type xs ys zs fx fy fz
1 1 0.5 0.5 0.5 -4.69563e-10 1.12786e-10 -0.0021564
2 1 0 2.81754e-11 0 4.69561e-10 -1.145e-09 0.0021564
3 5 0.5 0 0.300666 -2.00028e-10 1.00285e-10 0.075976
4 5 0 0.5 0.199334 2.00025e-10 9.94737e-10 -0.075976
5 5 0 0.5 0.699334 8.93937e-10 -1.69768e-10 -0.0741732
6 5 0.5 0 0.800666 -8.93936e-10 1.06959e-10 0.0741732
