LAMMPS data file via write_data, version 2 Aug 2023, timestep = 0, units = metal

6 atoms
5 atom types

0 3.5488465601 xlo xhi
0 3.5488465601 ylo yhi
0 5.1469019227 zlo zhi
0 0 0 xy xz yz

Masses

1 178.49
2 91.224
3 88.90600000000001
4 26.982
5 15.999

Atoms # atomic

1 1 1.7744232801 1.7744232801 2.5734509614 0 0 0
2 1 0 1e-10 0 0 0 0
3 5 1.7744232801 0 1.5474984135000003 0 0 0
4 5 0 1.7744232801 1.0259525479 0 0 0
5 5 0 1.7744232801 3.5994035093000005 0 0 0
6 5 1.7744232801 0 4.1209493748 0 0 0

Velocities

1 0 0 0
2 0 0 0
3 0 0 0
4 0 0 0
5 0 0 0
6 0 0 0
