ITEM: TIMESTEP
0
ITEM: NUMBER OF ATOMS
6
ITEM: BOX BOUNDS xy xz yz pp pp pp
0.0000000000000000e+00 3.5488465600999999e+00 0.0000000000000000e+00
0.0000000000000000e+00 3.5488465600999999e+00 0.0000000000000000e+00
0.0000000000000000e+00 5.1469019226999997e+00 0.0000000000000000e+00
ITEM: ATOMS id type xs ys zs fx fy fz
1 1 0.5 0.5 0.5 -5.17134e-10 -3.99279e-10 -7.02505e-10
2 1 0 2.81782e-11 0 5.17129e-10 -7.19953e-10 7.02515e-10
3 5 0.5 0 0.300666 -2.12144e-10 1.03793e-09 -0.0383658
4 5 0 0.5 0.199334 2.12141e-10 1.36402e-10 0.0383658
5 5 0 0.5 0.699334 9.32975e-10 -3.65109e-10 0.0383658
6 5 0.5 0 0.800666 -9.32968e-10 3.10013e-10 -0.0383658
