ITEM: TIMESTEP
0
ITEM: NUMBER OF ATOMS
6
ITEM: BOX BOUNDS xy xz yz pp pp pp
0.0000000000000000e+00 3.5493587150999999e+00 0.0000000000000000e+00
0.0000000000000000e+00 3.5488465600999999e+00 5.1215500000000003e-04
0.0000000000000000e+00 5.1215502490000002e+00 0.0000000000000000e+00
ITEM: ATOMS id type xs ys zs fx fy fz
1 1 0.5 0.5 0.5 0.00133281 -4.13431e-10 -1.98751e-07
2 1 0 2.81782e-11 0 -0.00133281 -7.33756e-10 1.98751e-07
3 5 0.5 0 0.300666 -0.000409465 1.05262e-09 -0.0753511
4 5 1 0.5 0.199334 0.000409465 1.47531e-10 0.0753511
5 5 1 0.5 0.699334 -0.0011308 -3.64142e-10 0.0753518
6 5 0.5 0 0.800666 0.0011308 3.11183e-10 -0.0753518
