ITEM: TIMESTEP
0
ITEM: NUMBER OF ATOMS
6
ITEM: BOX BOUNDS xy xz yz pp pp pp
-3.5843350300000000e-02 3.5488465600999999e+00 -3.5843350300000000e-02
0.0000000000000000e+00 3.5488465600999999e+00 0.0000000000000000e+00
0.0000000000000000e+00 5.1732830798000000e+00 0.0000000000000000e+00
ITEM: ATOMS id type xs ys zs fx fy fz
1 1 0.5 0.5 0.5 -6.52681e-10 -3.93743e-10 -0.00111188
2 1 2.846e-13 2.81782e-11 0 6.52096e-10 -6.95845e-10 0.00111188
3 5 0.5 0 0.300666 1.32633e-10 1.0165e-09 0.000579127
4 5 1.42314e-11 0.5 0.199334 -1.40659e-10 1.30578e-10 -0.000579127
5 5 1.42314e-11 0.5 0.699334 4.66618e-10 -3.64586e-10 0.000406476
6 5 0.5 0 0.800666 -4.58005e-10 3.07094e-10 -0.000406476
