ITEM: TIMESTEP
0
ITEM: NUMBER OF ATOMS
6
ITEM: BOX BOUNDS xy xz yz pp pp pp
0.0000000000000000e+00 3.5665907929000000e+00 0.0000000000000000e+00
0.0000000000000000e+00 3.5484916754000002e+00 0.0000000000000000e+00
0.0000000000000000e+00 5.1732830798000000e+00 0.0000000000000000e+00
ITEM: ATOMS id type xs ys zs fx fy fz
1 1 0.5 0.5 0.5 -4.62965e-10 -8.79836e-10 0.109105
2 1 0 2.8181e-11 0 4.62963e-10 -2.1186e-10 -0.109105
3 5 0.5 0 0.300666 -1.99457e-10 1.92959e-09 -0.0279172
4 5 0 0.5 0.199334 1.99455e-10 -7.8539e-10 0.0279172
5 5 0 0.5 0.699334 8.84914e-10 -5.67278e-10 -0.0672346
6 5 0.5 0 0.800666 -8.84908e-10 5.14771e-10 0.0672346
