ITEM: TIMESTEP
0
ITEM: NUMBER OF ATOMS
6
ITEM: BOX BOUNDS xy xz yz pp pp pp
-2.5866415399999999e-02 3.5488465600999999e+00 0.0000000000000000e+00
0.0000000000000000e+00 3.5492014448000000e+00 -2.5866415399999999e-02
0.0000000000000000e+00 5.1732830798000000e+00 0.0000000000000000e+00
ITEM: ATOMS id type xs ys zs fx fy fz
1 1 0.5 0.5 0.5 -0.064652 1.16579e-10 -0.00263988
2 1 0 2.81754e-11 0 0.064652 -1.2052e-09 0.00263988
3 5 0.5 0 0.300666 0.0188405 1.03359e-10 0.0016357
4 5 1.32999e-11 0.5 0.199334 -0.0188405 1.04304e-09 -0.0016357
5 5 1.32999e-11 0.5 0.699334 0.052565 -1.58631e-10 0.00183949
6 5 0.5 0 0.800666 -0.052565 1.00849e-10 -0.00183949
