ITEM: TIMESTEP
0
ITEM: NUMBER OF ATOMS
6
ITEM: BOX BOUNDS xy xz yz pp pp pp
0.0000000000000000e+00 3.5488465600999999e+00 0.0000000000000000e+00
0.0000000000000000e+00 3.5492014448000000e+00 0.0000000000000000e+00
0.0000000000000000e+00 5.1215502490000002e+00 0.0000000000000000e+00
ITEM: ATOMS id type xs ys zs fx fy fz
1 1 0.5 0.5 0.5 -5.32205e-10 1.18918e-10 -0.00220637
2 1 0 2.81754e-11 0 5.32202e-10 -1.26456e-09 0.00220637
3 5 0.5 0 0.300666 -2.16071e-10 1.0652e-10 -0.0738841
4 5 0 0.5 0.199334 2.16067e-10 1.09226e-09 0.0738841
5 5 0 0.5 0.699334 9.45987e-10 -1.48204e-10 0.0759428
6 5 0.5 0 0.800666 -9.4598e-10 9.50636e-11 -0.0759428
