ITEM: TIMESTEP
0
ITEM: NUMBER OF ATOMS
6
ITEM: BOX BOUNDS xy xz yz pp pp pp
-1.7744232799999999e-02 3.5488465600999999e+00 -1.7744232799999999e-02
0.0000000000000000e+00 3.5488465600999999e+00 0.0000000000000000e+00
0.0000000000000000e+00 5.1732830798000000e+00 0.0000000000000000e+00
ITEM: ATOMS id type xs ys zs fx fy fz
1 1 0.5 0.5 0.5 -4.96904e-10 -3.8649e-10 -0.000272578
2 1 1.40998e-13 2.81782e-11 0 4.96618e-10 -7.03594e-10 0.000272578
3 5 0.5 0 0.300666 -2.06699e-10 1.01863e-09 0.00014543
4 5 7.03881e-14 0.5 0.199334 2.02722e-10 1.28972e-10 -0.00014543
5 5 7.04454e-14 0.5 0.699334 9.17735e-10 -3.60816e-10 9.62374e-05
6 5 0.5 0 0.800666 -9.13472e-10 3.03293e-10 -9.62374e-05
ITEM: TIMESTEP
6
ITEM: NUMBER OF ATOMS
6
ITEM: BOX BOUNDS xy xz yz pp pp pp
-1.7744232799999999e-02 3.5488465600999999e+00 -1.7744232799999999e-02
0.0000000000000000e+00 3.5488465600999999e+00 0.0000000000000000e+00
0.0000000000000000e+00 5.1732830798000000e+00 0.0000000000000000e+00
ITEM: ATOMS id type xs ys zs fx fy fz
1 1 0.5 0.5 0.499999 2.55651e-12 -3.2762e-12 -2.93654e-14
2 1 7.34968e-12 1.29678e-11 9.30024e-07 -2.38437e-12 2.33884e-11 3.20854e-14
3 5 0.5 1.35398e-11 0.300668 1.24976e-11 -3.10634e-11 1.15227e-11
4 5 7.43058e-12 0.5 0.199332 -1.22658e-11 -2.16003e-11 -1.15385e-11
5 5 6.94578e-12 0.5 0.699334 8.58363e-12 2.58834e-11 -1.14269e-11
6 5 0.5 8.66824e-12 0.800666 -8.98617e-12 6.66748e-12 1.14393e-11
