LAMMPS (2 Aug 2023 - Update 1)
OMP_NUM_THREADS environment is not set. Defaulting to 1 thread. (src/comm.cpp:98)
  using 1 OpenMP thread(s) per MPI task
Loaded 1 plugins from /home/lijh/anaconda3/envs/deepmd/lib/deepmd_lmp
clear
OMP_NUM_THREADS environment is not set. Defaulting to 1 thread. (src/comm.cpp:98)
  using 1 OpenMP thread(s) per MPI task
Loaded 1 plugins from /home/lijh/anaconda3/envs/deepmd/lib/deepmd_lmp
units    metal
dimension    3
boundary    p p p
box    tilt large

The 'box' command has been removed and will be ignored


read_data    conf.lmp
Reading data file ...
  triclinic box = (0 0 0) to (3.5488466 3.5488466 5.1732831) with tilt (-0.017744233 0 0)
  1 by 1 by 1 MPI processor grid
  reading atoms ...
  6 atoms
  read_data CPU = 0.003 seconds

neigh_modify    every 1 delay 0 check no

pair_style    deepmd    graph.pb
Summary of lammps deepmd module ...
  >>> Info of deepmd-kit:
  installed to:       /home/lijh/anaconda3/envs/deepmd
  source:             v2.2.10
  source branch:      HEAD
  source commit:      f8a0b3128
  source commit at:   2024-04-06 14:46:23 -0400
  support model ver.: 1.1 
  build variant:      cpu
  build with tf inc:  /home/lijh/anaconda3/envs/deepmd/include;/home/lijh/anaconda3/envs/deepmd/include
  build with tf lib:  /home/lijh/anaconda3/envs/deepmd/lib/libtensorflow_cc.so
  set tf intra_op_parallelism_threads: 0
  set tf inter_op_parallelism_threads: 0
  >>> Info of lammps module:
  use deepmd-kit at:  /home/lijh/anaconda3/envs/deepmdpair_coeff * *

compute    mype all pe
thermo    100
thermo_style    custom step pe pxx pyy pzz pxy pxz pyz lx ly lz vol c_mype
dump    1 all custom 100 dump.relax id type xs ys zs fx fy fz
write_data    CONTCAR.lmp
System init for write_data ...
Generated 0 of 10 mixed pair_coeff terms from geometric mixing rule
Neighbor list info ...
  update: every = 1 steps, delay = 0 steps, check = no
  max neighbors/atom: 2000, page size: 100000
  master list distance cutoff = 8
  ghost atom cutoff = 8
  binsize = 4, bins = 1 1 2
  1 neighbor lists, perpetual/occasional/extra = 1 0 0
  (1) pair deepmd, perpetual
      attributes: full, newton on
      pair build: full/bin/atomonly
      stencil: full/bin/3d
      bin: standard

min_style    cg
minimize    0 1e-10 5000 500000

CITE-CITE-CITE-CITE-CITE-CITE-CITE-CITE-CITE-CITE-CITE-CITE-CITE

Your simulation uses code contributions which should be cited:

- USER-DEEPMD package:

@article{Wang_ComputPhysCommun_2018_v228_p178,
  author = {Wang, Han and Zhang, Linfeng and Han, Jiequn and E, Weinan},
  doi = {10.1016/j.cpc.2018.03.016},
  url = {https://doi.org/10.1016/j.cpc.2018.03.016},
  year = 2018,
  month = {jul},
  publisher = {Elsevier {BV}},
  volume = 228,
  journal = {Comput. Phys. Commun.},
  title = {{DeePMD-kit: A deep learning package for many-body potential energy representation and molecular dynamics}},
  pages = {178--184}
}
@misc{Zeng_JChemPhys_2023_v159_p054801,
  title  = {{DeePMD-kit v2: A software package for deep potential models}},
  author =   {Jinzhe Zeng and Duo Zhang and Denghui Lu and Pinghui Mo and Zeyu Li
         and Yixiao Chen and Mari{\'a}n Rynik and Li'ang Huang and Ziyao Li and 
         Shaochen Shi and Yingze Wang and Haotian Ye and Ping Tuo and Jiabin
         Yang and Ye Ding and Yifan Li and Davide Tisi and Qiyu Zeng and Han 
         Bao and Yu Xia and Jiameng Huang and Koki Muraoka and Yibo Wang and 
         Junhan Chang and Fengbo Yuan and Sigbj{\o}rn L{\o}land Bore and Chun
         Cai and Yinnian Lin and Bo Wang and Jiayan Xu and Jia-Xin Zhu and 
         Chenxing Luo and Yuzhi Zhang and Rhys E A Goodall and Wenshuo Liang
         and Anurag Kumar Singh and Sikai Yao and Jingchao Zhang and Renata
         Wentzcovitch and Jiequn Han and Jie Liu and Weile Jia and Darrin M
         York and Weinan E and Roberto Car and Linfeng Zhang and Han Wang},
  journal =  {J. Chem. Phys.},
  volume =   159,
  issue =    5,  
  year =    2023,
  pages  =   054801,
  doi =      {10.1063/5.0155600},
}

CITE-CITE-CITE-CITE-CITE-CITE-CITE-CITE-CITE-CITE-CITE-CITE-CITE

Generated 0 of 10 mixed pair_coeff terms from geometric mixing rule
Per MPI rank memory allocation (min/avg/max) = 3.615 | 3.615 | 3.615 Mbytes
   Step         PotEng          Pxx            Pyy            Pzz            Pxy            Pxz            Pyz             Lx             Ly             Lz           Volume         c_mype    
         0  -4877.5078     -51.664432     -5.3008734     -2.4744738      8025.765       2.4160653e-05  7.6494345e-06  3.5488466      3.5488466      5.1732831      65.153941     -4877.5078    
         6  -4877.5078     -58.462535      5.1802512      0.80413177     8025.7183     -1.5153711e-08 -6.3950237e-07  3.5488466      3.5488466      5.1732831      65.153941     -4877.5078    
Loop time of 0.0920675 on 1 procs for 6 steps with 6 atoms

355.1% CPU use with 1 MPI tasks x 1 OpenMP threads

Minimization stats:
  Stopping criterion = force tolerance
  Energy initial, next-to-last, final = 
     -4877.50784581323  -4877.50784581565  -4877.50784581565
  Force two-norm initial, final = 0.00045762522 6.0862964e-11
  Force max component initial, final = 0.0002725781 3.1063437e-11
  Final line search alpha, max atom move = 1 3.1063437e-11
  Iterations, force evaluations = 6 12

MPI task timing breakdown:
Section |  min time  |  avg time  |  max time  |%varavg| %total
---------------------------------------------------------------
Pair    | 0.090675   | 0.090675   | 0.090675   |   0.0 | 98.49
Neigh   | 0.00048333 | 0.00048333 | 0.00048333 |   0.0 |  0.52
Comm    | 0.00022189 | 0.00022189 | 0.00022189 |   0.0 |  0.24
Output  | 0          | 0          | 0          |   0.0 |  0.00
Modify  | 0          | 0          | 0          |   0.0 |  0.00
Other   |            | 0.0006869  |            |       |  0.75

Nlocal:              6 ave           6 max           6 min
Histogram: 1 0 0 0 0 0 0 0 0 0
Nghost:            743 ave         743 max         743 min
Histogram: 1 0 0 0 0 0 0 0 0 0
Neighs:              0 ave           0 max           0 min
Histogram: 1 0 0 0 0 0 0 0 0 0
FullNghs:         1220 ave        1220 max        1220 min
Histogram: 1 0 0 0 0 0 0 0 0 0

Total # of neighbors = 1220
Ave neighs/atom = 203.33333
Neighbor list builds = 13
Dangerous builds not checked

variable    V equal vol
variable    E equal "c_mype"
variable    Pxx equal pxx
variable    Pyy equal pyy
variable    Pzz equal pzz
variable    Pyz equal pyz
variable    Pxz equal pxz
variable    Pxy equal pxy

print "All done"
All done
print "Final energy = ${E}"
Final energy = -4877.50784581565
print "Final Stress (xx yy zz yz xz xy) = ${Pxx} ${Pyy} ${Pzz} ${Pyz} ${Pxz} ${Pxy}"
Final Stress (xx yy zz yz xz xy) = -58.4625351979596 5.18025118988091 0.804131774032072 -6.39502373454073e-07 -1.51537108142963e-08 8025.71833440305
Total wall time: 0:00:01
