ITEM: TIMESTEP
0
ITEM: NUMBER OF ATOMS
6
ITEM: BOX BOUNDS xy xz yz pp pp pp
0.0000000000000000e+00 3.5488465600999999e+00 0.0000000000000000e+00
0.0000000000000000e+00 3.6010967192000001e+00 0.0000000000000000e+00
0.0000000000000000e+00 5.1732830798000000e+00 5.2250159099999999e-02
ITEM: ATOMS id type xs ys zs fx fy fz
1 1 0.5 0.5 0.5 -5.01144e-10 -0.130712 0.00187777
2 1 0 2.81782e-11 0 5.01142e-10 0.130712 -0.00187777
3 5 0.5 1 0.300666 -2.08139e-10 0.106211 -0.00529207
4 5 0 0.5 0.199334 2.08138e-10 -0.106211 0.00529207
5 5 0 0.5 0.699334 9.19688e-10 0.0380409 -0.000997809
6 5 0.5 3.87378e-12 0.800666 -9.19686e-10 -0.0380409 0.000997809
