ITEM: TIMESTEP
0
ITEM: NUMBER OF ATOMS
6
ITEM: BOX BOUNDS xy xz yz pp pp pp
0.0000000000000000e+00 3.5488465600999999e+00 0.0000000000000000e+00
0.0000000000000000e+00 3.5492014448000000e+00 0.0000000000000000e+00
0.0000000000000000e+00 5.1474166643999997e+00 0.0000000000000000e+00
ITEM: ATOMS id type xs ys zs fx fy fz
1 1 0.5 0.5 0.5 -5.16765e-10 1.1792e-10 -0.00219281
2 1 0 2.81754e-11 0 5.16762e-10 -1.23505e-09 0.00219281
3 5 0.5 0 0.300666 -2.11957e-10 1.04942e-10 -0.0361875
4 5 0 0.5 0.199334 2.11954e-10 1.06751e-09 0.0361875
5 5 0 0.5 0.699334 9.32563e-10 -1.53316e-10 0.0381834
6 5 0.5 0 0.800666 -9.32561e-10 9.79848e-11 -0.0381834
