ITEM: TIMESTEP
0
ITEM: NUMBER OF ATOMS
6
ITEM: BOX BOUNDS xy xz yz pp pp pp
0.0000000000000000e+00 3.5492014448000000e+00 0.0000000000000000e+00
0.0000000000000000e+00 3.5133580945000000e+00 0.0000000000000000e+00
0.0000000000000000e+00 5.1732830798000000e+00 0.0000000000000000e+00
ITEM: ATOMS id type xs ys zs fx fy fz
1 1 0.5 0.5 0.5 6.66134e-15 -4.71331e-10 0.228996
2 1 0 2.84628e-11 0 -6.99441e-15 -7.7555e-10 -0.228996
3 5 0.5 0 0.300666 3.13638e-15 1.09253e-09 -0.150881
4 5 0 0.5 0.199334 -3.96905e-15 1.92979e-10 0.150881
5 5 0 0.5 0.699334 -1.67887e-14 -3.59339e-10 -0.0586609
6 5 0.5 1 0.800666 1.58762e-14 3.20709e-10 0.0586609
