ITEM: TIMESTEP
0
ITEM: NUMBER OF ATOMS
6
ITEM: BOX BOUNDS xy xz yz pp pp pp
-2.5866415399999999e-02 3.5488465600999999e+00 0.0000000000000000e+00
0.0000000000000000e+00 3.5488465600999999e+00 -2.5866415399999999e-02
0.0000000000000000e+00 5.1732830798000000e+00 0.0000000000000000e+00
ITEM: ATOMS id type xs ys zs fx fy fz
1 1 0.5 0.5 0.5 -0.0646606 -3.8475e-10 -0.000459851
2 1 0 2.81782e-11 0 0.0646606 -7.05388e-10 0.000459851
3 5 0.5 0 0.300666 0.0188542 1.023e-09 0.000248581
4 5 1.33e-11 0.5 0.199334 -0.0188542 1.24729e-10 -0.000248581
5 5 1.32999e-11 0.5 0.699334 0.0525627 -3.66462e-10 0.00129476
6 5 0.5 0 0.800666 -0.0525627 3.08876e-10 -0.00129476
ITEM: TIMESTEP
20
ITEM: NUMBER OF ATOMS
6
ITEM: BOX BOUNDS xy xz yz pp pp pp
-2.5866415399999999e-02 3.5488465600999999e+00 0.0000000000000000e+00
0.0000000000000000e+00 3.5488465600999999e+00 -2.5866415399999999e-02
0.0000000000000000e+00 5.1732830798000000e+00 0.0000000000000000e+00
ITEM: ATOMS id type xs ys zs fx fy fz
1 1 0.498722 0.5 0.500007 -1.67126e-11 -2.51199e-12 -2.58327e-12
2 1 0.0012783 1.23034e-11 0.999993 1.6715e-11 -2.50804e-12 2.5715e-12
3 5 0.500164 1.21644e-11 0.300671 -1.40274e-11 -1.94685e-12 -6.27864e-12
4 5 0.999836 0.5 0.199329 1.40233e-11 -1.94761e-12 6.29197e-12
5 5 9.41359e-05 0.5 0.699347 -1.2471e-11 4.45914e-12 6.89893e-13
6 5 0.499906 1.07551e-11 0.800653 1.24753e-11 4.45624e-12 -6.88782e-13
