ITEM: TIMESTEP
0
ITEM: NUMBER OF ATOMS
6
ITEM: BOX BOUNDS xy xz yz pp pp pp
0.0000000000000000e+00 3.5843350257000002e+00 0.0000000000000000e+00
0.0000000000000000e+00 3.5488465600999999e+00 0.0000000000000000e+00
0.0000000000000000e+00 5.1732830798000000e+00 0.0000000000000000e+00
ITEM: ATOMS id type xs ys zs fx fy fz
1 1 0.5 0.5 0.5 -4.25248e-10 -3.75495e-10 0.20969
2 1 0 2.81782e-11 0 4.25248e-10 -7.14056e-10 -0.20969
3 5 0.5 0 0.300666 -1.90156e-10 1.00806e-09 -0.0516024
4 5 0 0.5 0.199334 1.90156e-10 1.29694e-10 0.0516024
5 5 0 0.5 0.699334 8.50424e-10 -3.62475e-10 -0.128035
6 5 0.5 0 0.800666 -8.50426e-10 3.14273e-10 0.128035
ITEM: TIMESTEP
21
ITEM: NUMBER OF ATOMS
6
ITEM: BOX BOUNDS xy xz yz pp pp pp
0.0000000000000000e+00 3.5843350257000002e+00 0.0000000000000000e+00
0.0000000000000000e+00 3.5488465600999999e+00 0.0000000000000000e+00
0.0000000000000000e+00 5.1732830798000000e+00 0.0000000000000000e+00
ITEM: ATOMS id type xs ys zs fx fy fz
1 1 0.5 0.5 0.500775 -1.56941e-12 -2.8672e-12 6.58466e-14
2 1 6.96173e-12 1.22113e-11 0.999225 1.56697e-12 -1.37866e-11 -4.58522e-14
3 5 0.5 1.20008e-11 0.301623 3.4997e-13 -4.56163e-12 2.7478e-15
4 5 6.97864e-12 0.5 0.198377 -3.4972e-13 1.71747e-11 -1.01585e-14
5 5 6.94627e-12 0.5 0.697347 3.31365e-12 9.40743e-13 -9.32587e-15
6 5 0.5 1.11435e-11 0.802653 -3.3164e-12 3.10191e-12 -5.16254e-15
