ITEM: TIMESTEP
0
ITEM: NUMBER OF ATOMS
6
ITEM: BOX BOUNDS xy xz yz pp pp pp
0.0000000000000000e+00 3.5493638883999998e+00 0.0000000000000000e+00
0.0000000000000000e+00 3.5665907929000000e+00 5.1732830000000005e-04
0.0000000000000000e+00 5.1732830798000000e+00 0.0000000000000000e+00
ITEM: ATOMS id type xs ys zs fx fy fz
1 1 0.5 0.5 0.5 0.00128439 -3.42896e-10 -0.106923
2 1 0 2.8038e-11 0 -0.00128439 -6.7229e-10 0.106923
3 5 0.5 0 0.300666 -0.000364073 9.90112e-10 0.0666962
4 5 1 0.5 0.199334 0.000364073 9.23468e-11 -0.0666962
5 5 8.6368e-12 0.5 0.699334 -0.00105304 -3.70666e-10 0.0265212
6 5 0.5 0 0.800666 0.00105304 3.03395e-10 -0.0265212
