ITEM: TIMESTEP
0
ITEM: NUMBER OF ATOMS
6
ITEM: BOX BOUNDS xy xz yz pp pp pp
0.0000000000000000e+00 3.5488465600999999e+00 0.0000000000000000e+00
0.0000000000000000e+00 3.5665907929000000e+00 0.0000000000000000e+00
0.0000000000000000e+00 5.1738004081000000e+00 0.0000000000000000e+00
ITEM: ATOMS id type xs ys zs fx fy fz
1 1 0.5 0.5 0.5 -4.97797e-10 -3.4263e-10 -0.106911
2 1 0 2.8038e-11 0 4.97798e-10 -6.72004e-10 0.106911
3 5 0.5 0 0.300666 -2.02645e-10 9.8983e-10 0.0674052
4 5 0 0.5 0.199334 2.02648e-10 9.21301e-11 -0.0674052
5 5 0 0.5 0.699334 9.12393e-10 -3.70697e-10 0.0257481
6 5 0.5 0 0.800666 -9.12402e-10 3.03371e-10 -0.0257481
