ITEM: TIMESTEP
0
ITEM: NUMBER OF ATOMS
6
ITEM: BOX BOUNDS xy xz yz pp pp pp
0.0000000000000000e+00 3.5492014448000000e+00 3.5488469999999999e-04
0.0000000000000000e+00 3.5488465600999999e+00 0.0000000000000000e+00
0.0000000000000000e+00 5.1474166643999997e+00 0.0000000000000000e+00
ITEM: ATOMS id type xs ys zs fx fy fz
1 1 0.5 0.5 0.5 -3.56576e-10 -3.99007e-10 -1.09684e-07
2 1 1 2.81782e-11 0 3.56562e-10 -7.19656e-10 1.09684e-07
3 5 0.5 0 0.300666 -5.49662e-10 1.03775e-09 -0.0376156
4 5 1 0.5 0.199334 5.49741e-10 1.36057e-10 0.0376156
5 5 1 0.5 0.699334 1.38348e-09 -3.65342e-10 0.0376157
6 5 0.5 0 0.800666 -1.38355e-09 3.10204e-10 -0.0376157
