ITEM: TIMESTEP
0
ITEM: NUMBER OF ATOMS
6
ITEM: BOX BOUNDS xy xz yz pp pp pp
0.0000000000000000e+00 3.5492014448000000e+00 0.0000000000000000e+00
0.0000000000000000e+00 3.5488465600999999e+00 0.0000000000000000e+00
0.0000000000000000e+00 5.1732830798000000e+00 0.0000000000000000e+00
ITEM: ATOMS id type xs ys zs fx fy fz
1 1 0.5 0.5 0.5 6.32827e-15 -3.84637e-10 0.00217999
2 1 1 2.81782e-11 0 1.70974e-14 -7.05604e-10 -0.00217999
3 5 0.5 0 0.300666 -3.21271e-15 1.02286e-09 -0.000539646
4 5 1 0.5 0.199334 6.05072e-15 1.2482e-10 0.000539646
5 5 0 0.5 0.699334 -2.34465e-14 -3.66415e-10 -0.00139261
6 5 0.5 0 0.800666 -4.21885e-15 3.08979e-10 0.00139261
