ITEM: TIMESTEP
0
ITEM: NUMBER OF ATOMS
6
ITEM: BOX BOUNDS xy xz yz pp pp pp
0.0000000000000000e+00 3.5492014448000000e+00 0.0000000000000000e+00
0.0000000000000000e+00 3.5488465600999999e+00 0.0000000000000000e+00
0.0000000000000000e+00 5.1474166643999997e+00 0.0000000000000000e+00
ITEM: ATOMS id type xs ys zs fx fy fz
1 1 0.5 0.5 0.5 6.10623e-15 -3.98894e-10 0.00219281
2 1 0 2.81782e-11 0 -1.94289e-15 -7.19777e-10 -0.00219281
3 5 0.5 0 0.300666 3.35842e-15 1.03748e-09 -0.0381834
4 5 0 0.5 0.199334 -5.16254e-15 1.36235e-10 0.0381834
5 5 0 0.5 0.699334 -1.43011e-14 -3.6509e-10 0.0361875
6 5 0.5 0 0.800666 1.16018e-14 3.10052e-10 -0.0361875
