ITEM: TIMESTEP
0
ITEM: NUMBER OF ATOMS
6
ITEM: BOX BOUNDS xy xz yz pp pp pp
-3.5843350000000002e-04 3.5488465600999999e+00 -3.5843350000000002e-04
0.0000000000000000e+00 3.5843350257000002e+00 0.0000000000000000e+00
0.0000000000000000e+00 5.1732830798000000e+00 0.0000000000000000e+00
ITEM: ATOMS id type xs ys zs fx fy fz
1 1 0.5 0.5 0.5 -3.25565e-10 -3.02063e-10 -0.20969
2 1 2.81782e-15 2.78992e-11 0 3.25542e-10 -6.40139e-10 0.20969
3 5 0.5 0 0.300666 -5.35826e-10 9.57745e-10 0.128035
4 5 1 0.5 0.199334 5.35762e-10 6.15643e-11 -0.128035
5 5 1 0.5 0.699334 1.34488e-09 -3.74494e-10 0.0516025
6 5 0.5 0 0.800666 -1.34479e-09 2.97388e-10 -0.0516025
