ITEM: TIMESTEP
0
ITEM: NUMBER OF ATOMS
6
ITEM: BOX BOUNDS xy xz yz pp pp pp
0.0000000000000000e+00 3.5314554375000000e+00 0.0000000000000000e+00
0.0000000000000000e+00 3.5488465600999999e+00 0.0000000000000000e+00
0.0000000000000000e+00 5.1732830798000000e+00 0.0000000000000000e+00
ITEM: ATOMS id type xs ys zs fx fy fz
1 1 0.5 0.5 0.5 -5.39684e-10 -3.89297e-10 -0.108949
2 1 0 2.81782e-11 0 5.39682e-10 -7.005e-10 0.108949
3 5 0.5 0 0.300666 -2.16555e-10 1.03036e-09 0.0273956
4 5 0 0.5 0.199334 2.16552e-10 1.22073e-10 -0.0273956
5 5 0 0.5 0.699334 9.54964e-10 -3.68485e-10 0.0707554
6 5 0.5 0 0.800666 -9.54959e-10 3.05852e-10 -0.0707554
