ITEM: TIMESTEP
0
ITEM: NUMBER OF ATOMS
6
ITEM: BOX BOUNDS xy xz yz pp pp pp
-3.5488465599999998e-02 3.5488465600999999e+00 -3.5488465599999998e-02
0.0000000000000000e+00 3.5488465600999999e+00 0.0000000000000000e+00
0.0000000000000000e+00 5.1732830798000000e+00 0.0000000000000000e+00
ITEM: ATOMS id type xs ys zs fx fy fz
1 1 0.5 0.5 0.5 -4.92447e-10 -3.88076e-10 -0.00108998
2 1 2.81775e-13 2.81782e-11 0 4.91865e-10 -7.01519e-10 0.00108998
3 5 0.5 0 0.300666 -2.05391e-10 1.01421e-09 0.000567776
4 5 1.40998e-13 0.5 0.199334 1.9745e-10 1.32874e-10 -0.000567776
5 5 1.40891e-13 0.5 0.699334 9.15862e-10 -3.55357e-10 0.000398419
6 5 0.5 0 0.800666 -9.07339e-10 2.97861e-10 -0.000398419
ITEM: TIMESTEP
8
ITEM: NUMBER OF ATOMS
6
ITEM: BOX BOUNDS xy xz yz pp pp pp
-3.5488465599999998e-02 3.5488465600999999e+00 -3.5488465599999998e-02
0.0000000000000000e+00 3.5488465600999999e+00 0.0000000000000000e+00
0.0000000000000000e+00 5.1732830798000000e+00 0.0000000000000000e+00
ITEM: ATOMS id type xs ys zs fx fy fz
1 1 0.5 0.5 0.499996 -2.21489e-13 9.17722e-13 1.43861e-14
2 1 7.15004e-12 1.31593e-11 3.72073e-06 5.3757e-13 -7.27778e-12 -9.10383e-15
3 5 0.5 1.26968e-11 0.300672 -4.88884e-12 -3.88971e-12 -2.5599e-13
4 5 7.00564e-12 0.5 0.199328 5.13467e-12 -1.13528e-11 2.57461e-13
5 5 7.16677e-12 0.5 0.699334 2.93238e-13 4.18583e-12 1.59206e-13
6 5 0.5 9.26572e-12 0.800666 -8.57314e-13 1.74197e-11 -1.66041e-13
