ITEM: TIMESTEP
0
ITEM: NUMBER OF ATOMS
6
ITEM: BOX BOUNDS xy xz yz pp pp pp
0.0000000000000000e+00 3.5933280000000001e+00 0.0000000000000000e+00
0.0000000000000000e+00 3.5933280000000001e+00 0.0000000000000000e+00
0.0000000000000000e+00 5.2246730000000001e+00 0.0000000000000000e+00
ITEM: ATOMS id type xs ys zs fx fy fz
2 1 0 0 0 -2.22045e-16 -4.57967e-16 1.11022e-16
5 5 0.5 0 0.304692 1.22125e-15 -4.43872e-16 0.0656108
4 5 0.5 0 0.804692 1.11022e-16 -6.72856e-16 0.0656108
6 5 0 0.5 0.195308 -6.93889e-16 6.66134e-16 -0.0656108
1 1 0.5 0.5 0.5 1.11022e-16 2.08082e-16 1.2608e-14
3 5 0 0.5 0.695308 -2.498e-16 3.46945e-16 -0.0656108
ITEM: TIMESTEP
100
ITEM: NUMBER OF ATOMS
6
ITEM: BOX BOUNDS xy xz yz pp pp pp
1.7966640000000006e-02 3.5753613600000063e+00 0.0000000000000000e+00
1.7966640000000006e-02 3.5753613600000063e+00 0.0000000000000000e+00
2.6123364999999898e-02 5.1985496350000142e+00 0.0000000000000000e+00
ITEM: ATOMS id type xs ys zs fx fy fz
2 1 0 0 0 -3.55271e-15 -1.14137e-14 -4.9627e-14
5 5 0.5 0 0.304652 3.33067e-15 -1.38331e-14 -0.101757
6 5 0 0.5 0.195348 -7.88258e-15 2.15938e-14 0.101757
1 1 0.5 0.5 0.5 6.32827e-15 5.23173e-15 4.23359e-14
4 5 0.5 0 0.804652 1.59872e-14 -6.2862e-15 -0.101757
3 5 0 0.5 0.695348 -1.62925e-14 5.79788e-15 0.101757
ITEM: TIMESTEP
155
ITEM: NUMBER OF ATOMS
6
ITEM: BOX BOUNDS xy xz yz pp pp pp
2.0977603166440290e-02 3.5723503968335666e+00 0.0000000000000000e+00
2.0977603166440290e-02 3.5723503968335666e+00 0.0000000000000000e+00
3.0501283731519786e-02 5.1941717162684959e+00 0.0000000000000000e+00
ITEM: ATOMS id type xs ys zs fx fy fz
5 5 0.5 1.20122e-13 0.300385 -1.0687e-12 -1.41472e-11 -1.33811e-10
6 5 1 0.5 0.199615 1.03809e-12 1.50093e-11 1.30857e-10
1 1 0.5 0.5 0.5 5.15499e-12 6.76549e-12 4.91312e-10
2 1 4.77495e-14 6.62975e-14 1.94233e-12 -5.49194e-12 -7.5501e-12 -4.91181e-10
4 5 0.5 1 0.800385 1.10645e-11 1.39734e-12 1.68507e-10
3 5 9.15834e-14 0.5 0.699615 -1.06923e-11 -1.47408e-12 -1.65682e-10
ITEM: TIMESTEP
183
ITEM: NUMBER OF ATOMS
6
ITEM: BOX BOUNDS xy xz yz pp pp pp
2.2240719914186351e-02 3.5710872800858198e+00 0.0000000000000000e+00
2.2240719955501750e-02 3.5710872800445057e+00 0.0000000000000000e+00
2.5694960104731303e-02 5.1989780398952847e+00 0.0000000000000000e+00
ITEM: ATOMS id type xs ys zs fx fy fz
3 5 1 0.5 0.699334 4.239e-11 5.77272e-12 -2.48e-10
4 5 0.5 4.68518e-14 0.800666 -4.35126e-11 -5.50239e-12 2.37286e-10
5 5 0.5 1 0.300666 4.24616e-12 5.60145e-11 1.68754e-10
6 5 3.5305e-14 0.5 0.199334 -4.1375e-12 -5.89898e-11 -1.57929e-10
1 1 0.5 0.5 0.5 -2.06264e-11 -2.69551e-11 -5.37841e-10
2 1 1 1 1 2.16416e-11 2.9661e-11 5.37733e-10
ITEM: TIMESTEP
184
ITEM: NUMBER OF ATOMS
6
ITEM: BOX BOUNDS xy xz yz pp pp pp
2.2240719933217745e-02 3.5710872800720375e+00 1.0952010802418558e-15
2.2240719923053001e-02 3.5710872800699245e+00 5.2483090245194405e-12
2.5694960095749269e-02 5.1989780399042669e+00 -7.0298258609881212e-12
ITEM: ATOMS id type xs ys zs fx fy fz
5 5 0.5 2.80008e-13 0.300666 1.67699e-10 1.04817e-10 2.21068e-10
6 5 1 0.5 0.199334 -1.04525e-10 1.58191e-09 -2.23515e-10
1 1 0.5 0.5 0.5 -1.02704e-10 2.04849e-10 1.87792e-11
2 1 1 4.1541e-11 3.48945e-13 1.299e-09 -1.80701e-09 -1.88217e-11
3 5 2.10424e-13 0.5 0.699334 -1.48467e-10 -2.41052e-10 -1.57396e-10
4 5 0.5 1 0.800666 -1.111e-09 1.56485e-10 1.59886e-10
