ITEM: TIMESTEP
0
ITEM: NUMBER OF ATOMS
6
ITEM: BOX BOUNDS xy xz yz pp pp pp
0.0000000000000000e+00 3.5484916754000002e+00 0.0000000000000000e+00
0.0000000000000000e+00 3.5488465600999999e+00 0.0000000000000000e+00
0.0000000000000000e+00 5.2250159105999998e+00 0.0000000000000000e+00
ITEM: ATOMS id type xs ys zs fx fy fz
1 1 0.5 0.5 0.5 -9.40783e-10 -3.5701e-10 -0.00215806
2 1 0 2.81782e-11 0 9.40782e-10 -6.76716e-10 0.00215806
3 5 0.5 0 0.300666 -4.00625e-10 9.94505e-10 0.0751737
4 5 0 0.5 0.199334 4.00624e-10 1.01923e-10 -0.0751737
5 5 0 0.5 0.699334 1.78952e-09 -3.69685e-10 -0.0733681
6 5 0.5 0 0.800666 -1.78952e-09 3.06984e-10 0.0733681
