ITEM: TIMESTEP
0
ITEM: NUMBER OF ATOMS
6
ITEM: BOX BOUNDS xy xz yz pp pp pp
0.0000000000000000e+00 3.5488465600999999e+00 0.0000000000000000e+00
-5.1732830799999997e-02 3.5488465600999999e+00 0.0000000000000000e+00
0.0000000000000000e+00 5.1732830798000000e+00 -5.1732830799999997e-02
ITEM: ATOMS id type xs ys zs fx fy fz
1 1 0.5 0.5 0.5 -5.01153e-10 0.129416 0.00184073
2 1 0 2.81782e-11 0 5.01147e-10 -0.129416 -0.00184073
3 5 0.5 1.57835e-12 0.300666 -2.08134e-10 -0.105159 -0.00518787
4 5 0 0.5 0.199334 2.08138e-10 0.105159 0.00518787
5 5 0 0.5 0.699334 9.19691e-10 -0.0376654 -0.000978266
6 5 0.5 1.57829e-12 0.800666 -9.19688e-10 0.0376654 0.000978266
ITEM: TIMESTEP
23
ITEM: NUMBER OF ATOMS
6
ITEM: BOX BOUNDS xy xz yz pp pp pp
0.0000000000000000e+00 3.5488465600999999e+00 0.0000000000000000e+00
-5.1732830799999997e-02 3.5488465600999999e+00 0.0000000000000000e+00
0.0000000000000000e+00 5.1732830798000000e+00 -5.1732830799999997e-02
ITEM: ATOMS id type xs ys zs fx fy fz
1 1 0.5 0.502565 0.499973 9.99201e-16 -1.86801e-12 1.73535e-13
2 1 7.04463e-12 0.997435 2.72627e-05 1.40443e-14 -1.68388e-12 -7.80487e-14
3 5 0.5 0.999814 0.300616 -7.49401e-16 -1.25954e-12 -4.996e-14
4 5 7.04461e-12 0.500186 0.199384 1.52656e-15 -1.34837e-12 -9.27036e-15
5 5 7.04462e-12 0.499677 0.699313 5.14172e-15 3.13672e-12 1.55431e-14
6 5 0.5 0.000322803 0.800687 -2.04003e-14 3.02294e-12 -5.11986e-14
