
6 atoms
5 atom types

0.0000000000 3.5488465601 xlo xhi
0.0000000000 3.5488465601 ylo yhi
0.0000000000 5.1732830798 zlo zhi
0.0000000000 0.0000000000 0.0258664154 xy xz yz

Masses

1 178.4900
2 91.2240
3 88.9060
4 26.9820
5 15.9990

Atoms # atomic

1 1 1.7744232801 1.7873564878 2.5866415399
2 1 0.0000000000 0.0000000001 0.0000000000
3 5 1.7744232801 0.0077771517 1.5554303305
4 5 0.0000000000 1.7795793361 1.0312112094
5 5 0.0000000000 1.7925125438 3.6178527493
6 5 1.7744232801 0.0207103594 4.1420718704

