ITEM: TIMESTEP
0
ITEM: NUMBER OF ATOMS
6
ITEM: BOX BOUNDS xy xz yz pp pp pp
0.0000000000000000e+00 3.5488465600999999e+00 0.0000000000000000e+00
0.0000000000000000e+00 3.5488465600999999e+00 0.0000000000000000e+00
0.0000000000000000e+00 5.1986295803000004e+00 0.0000000000000000e+00
ITEM: ATOMS id type xs ys zs fx fy fz
1 1 0.5 0.5 0.5 -4.85894e-10 -3.70962e-10 1.33272e-09
2 1 0 2.81782e-11 0 4.8589e-10 -6.91521e-10 -8.57309e-10
3 5 0.5 0 0.300666 -2.04193e-10 1.00891e-09 0.036684
4 5 0 0.5 0.199334 2.04189e-10 1.1357e-10 -0.036684
5 5 0 0.5 0.699334 9.07064e-10 -3.67962e-10 -0.036684
6 5 0.5 0 0.800666 -9.07061e-10 3.0797e-10 0.036684
