ITEM: TIMESTEP
0
ITEM: NUMBER OF ATOMS
6
ITEM: BOX BOUNDS xy xz yz pp pp pp
0.0000000000000000e+00 3.5488465600999999e+00 0.0000000000000000e+00
0.0000000000000000e+00 3.5488465600999999e+00 0.0000000000000000e+00
0.0000000000000000e+00 5.2250159105999998e+00 0.0000000000000000e+00
ITEM: ATOMS id type xs ys zs fx fy fz
1 1 0.5 0.5 0.5 -4.69633e-10 -3.56909e-10 4.46865e-15
2 1 0 2.81782e-11 0 4.69631e-10 -6.76808e-10 1.44329e-15
3 5 0.5 0 0.300666 -2.00135e-10 9.94351e-10 0.0746732
4 5 0 0.5 0.199334 2.00132e-10 1.01975e-10 -0.0746732
5 5 0 0.5 0.699334 8.94082e-10 -3.69643e-10 -0.0746732
6 5 0.5 0 0.800666 -8.94079e-10 3.07037e-10 0.0746732
ITEM: TIMESTEP
7
ITEM: NUMBER OF ATOMS
6
ITEM: BOX BOUNDS xy xz yz pp pp pp
0.0000000000000000e+00 3.5488465600999999e+00 0.0000000000000000e+00
0.0000000000000000e+00 3.5488465600999999e+00 0.0000000000000000e+00
0.0000000000000000e+00 5.2250159105999998e+00 0.0000000000000000e+00
ITEM: ATOMS id type xs ys zs fx fy fz
1 1 0.5 0.5 0.5 -1.39566e-12 -5.4299e-12 -1.1513e-11
2 1 7.03533e-12 1.29974e-11 1 1.38106e-12 -3.99553e-12 1.15175e-11
3 5 0.5 1.26614e-11 0.303179 7.46736e-13 -2.50142e-12 8.33675e-12
4 5 7.05957e-12 0.5 0.196821 -7.4768e-13 -3.75655e-12 -8.3048e-12
5 5 7.02086e-12 0.5 0.696821 2.74061e-12 8.69384e-12 -9.5457e-13
6 5 0.5 9.57088e-12 0.803179 -2.72352e-12 6.98672e-12 9.19025e-13
