ITEM: TIMESTEP
0
ITEM: NUMBER OF ATOMS
6
ITEM: BOX BOUNDS xy xz yz pp pp pp
0.0000000000000000e+00 3.5488465600999999e+00 0.0000000000000000e+00
0.0000000000000000e+00 3.6005793908999997e+00 0.0000000000000000e+00
0.0000000000000000e+00 5.1732830798000000e+00 5.1732830799999997e-02
ITEM: ATOMS id type xs ys zs fx fy fz
1 1 0.5 0.5 0.5 -5.01151e-10 -0.129416 0.00184073
2 1 0 2.81782e-11 0 5.01149e-10 0.129416 -0.00184073
3 5 0.5 1 0.300666 -2.08135e-10 0.105159 -0.00518787
4 5 0 0.5 0.199334 2.08137e-10 -0.105159 0.00518787
5 5 0 0.5 0.699334 9.19689e-10 0.0376654 -0.000978266
6 5 0.5 1 0.800666 -9.19691e-10 -0.0376654 0.000978266
ITEM: TIMESTEP
23
ITEM: NUMBER OF ATOMS
6
ITEM: BOX BOUNDS xy xz yz pp pp pp
0.0000000000000000e+00 3.5488465600999999e+00 0.0000000000000000e+00
0.0000000000000000e+00 3.6005793908999997e+00 0.0000000000000000e+00
0.0000000000000000e+00 5.1732830798000000e+00 5.1732830799999997e-02
ITEM: ATOMS id type xs ys zs fx fy fz
1 1 0.5 0.497435 0.499973 -2.20934e-14 -1.74755e-12 -2.50459e-14
2 1 7.04456e-12 0.00256452 2.72627e-05 1.45439e-14 -1.81117e-12 -7.11653e-14
3 5 0.5 0.000185962 0.300616 1.47105e-15 -1.23043e-12 3.44447e-14
4 5 7.04464e-12 0.499814 0.199384 -1.85962e-15 -1.36598e-12 -1.93179e-14
5 5 7.04429e-12 0.500323 0.699313 4.16611e-14 3.02626e-12 1.12577e-13
6 5 0.5 0.999677 0.800687 -3.47777e-14 3.12806e-12 -3.21271e-14
