ITEM: TIMESTEP
0
ITEM: NUMBER OF ATOMS
6
ITEM: BOX BOUNDS xy xz yz pp pp pp
0.0000000000000000e+00 3.5491978958999999e+00 3.5133579999999998e-04
0.0000000000000000e+00 3.5133580945000000e+00 0.0000000000000000e+00
0.0000000000000000e+00 5.1732830798000000e+00 0.0000000000000000e+00
ITEM: ATOMS id type xs ys zs fx fy fz
1 1 0.5 0.5 0.5 -5.07794e-10 -4.71391e-10 0.226815
2 1 1 2.84628e-11 0 5.07762e-10 -7.75488e-10 -0.226815
3 5 0.5 0 0.300666 -2.19331e-10 1.09279e-09 -0.150321
4 5 1 0.5 0.199334 2.19424e-10 1.92823e-10 0.150321
5 5 1 0.5 0.699334 9.34197e-10 -3.59519e-10 -0.0572898
6 5 0.5 1 0.800666 -9.34255e-10 3.20783e-10 0.0572898
