ITEM: TIMESTEP
0
ITEM: NUMBER OF ATOMS
6
ITEM: BOX BOUNDS xy xz yz pp pp pp
0.0000000000000000e+00 3.5484916754000002e+00 0.0000000000000000e+00
0.0000000000000000e+00 3.5311023273000002e+00 0.0000000000000000e+00
0.0000000000000000e+00 5.1732830798000000e+00 0.0000000000000000e+00
ITEM: ATOMS id type xs ys zs fx fy fz
1 1 0.5 0.5 0.5 -1.01049e-09 -4.27671e-10 0.109022
2 1 0 2.83198e-11 0 1.01049e-09 -7.39761e-10 -0.109022
3 5 0.5 0 0.300666 -4.27519e-10 1.05731e-09 -0.0716963
4 5 0 0.5 0.199334 4.27519e-10 1.58224e-10 0.0716963
5 5 0 0.5 0.699334 1.85501e-09 -3.62699e-10 -0.0265836
6 5 0.5 1 0.800666 -1.85501e-09 3.14602e-10 0.0265836
