ITEM: TIMESTEP
0
ITEM: NUMBER OF ATOMS
6
ITEM: BOX BOUNDS xy xz yz pp pp pp
-5.1732830799999997e-02 3.5488465600999999e+00 0.0000000000000000e+00
0.0000000000000000e+00 3.5488465600999999e+00 -5.1732830799999997e-02
0.0000000000000000e+00 5.1727657515000001e+00 0.0000000000000000e+00
ITEM: ATOMS id type xs ys zs fx fy fz
1 1 0.5 0.5 0.5 -0.129466 -3.85109e-10 -0.00184257
2 1 0 2.81782e-11 0 0.129466 -7.05312e-10 0.00184257
3 5 0.5 0 0.300666 0.0376999 1.02326e-09 0.000228208
4 5 1 0.5 0.199334 -0.0376999 1.24874e-10 -0.000228209
5 5 1 0.5 0.699334 0.105251 -3.66467e-10 0.00593889
6 5 0.5 0 0.800666 -0.105251 3.08756e-10 -0.00593889
