ITEM: TIMESTEP
0
ITEM: NUMBER OF ATOMS
6
ITEM: BOX BOUNDS xy xz yz pp pp pp
-3.5488469999999999e-04 3.5488465600999999e+00 -3.5488469999999999e-04
0.0000000000000000e+00 3.5488465600999999e+00 0.0000000000000000e+00
0.0000000000000000e+00 5.2250159105999998e+00 0.0000000000000000e+00
ITEM: ATOMS id type xs ys zs fx fy fz
1 1 0.5 0.5 0.5 -6.29485e-10 -3.57019e-10 -1.07862e-07
2 1 2.81782e-15 2.81782e-11 0 6.2947e-10 -6.76704e-10 1.07862e-07
3 5 0.5 0 0.300666 1.38232e-10 9.94294e-10 0.0746733
4 5 1.40905e-11 0.5 0.199334 -1.38306e-10 1.02032e-10 -0.0746733
5 5 1.40905e-11 0.5 0.699334 4.4786e-10 -3.6962e-10 -0.0746732
6 5 0.5 0 0.800666 -4.4777e-10 3.07017e-10 0.0746732
