ITEM: TIMESTEP
0
ITEM: NUMBER OF ATOMS
6
ITEM: BOX BOUNDS xy xz yz pp pp pp
0.0000000000000000e+00 3.5488465600999999e+00 0.0000000000000000e+00
0.0000000000000000e+00 3.5488465600999999e+00 0.0000000000000000e+00
0.0000000000000000e+00 5.2244934089999999e+00 0.0000000000000000e+00
ITEM: ATOMS id type xs ys zs fx fy fz
1 1 0.5 0.5 0.5 -4.69956e-10 -3.57187e-10 -2.31412e-15
2 1 0 2.81782e-11 0 4.69949e-10 -6.77097e-10 -1.11022e-16
3 5 0.5 0 0.300666 -2.00216e-10 9.94637e-10 0.0739225
4 5 0 0.5 0.199334 2.00218e-10 1.02197e-10 -0.0739225
5 5 0 0.5 0.699334 8.94335e-10 -3.69608e-10 -0.0739225
6 5 0.5 0 0.800666 -8.94332e-10 3.07059e-10 0.0739225
