ITEM: TIMESTEP
0
ITEM: NUMBER OF ATOMS
6
ITEM: BOX BOUNDS xy xz yz pp pp pp
-5.1732830000000005e-04 3.5488465600999999e+00 0.0000000000000000e+00
0.0000000000000000e+00 3.5843350257000002e+00 -5.1732830000000005e-04
0.0000000000000000e+00 5.1732830798000000e+00 0.0000000000000000e+00
ITEM: ATOMS id type xs ys zs fx fy fz
1 1 0.5 0.5 0.5 -0.0012761 -3.02092e-10 -0.209691
2 1 0 2.78992e-11 0 0.0012761 -6.40105e-10 0.209691
3 5 0.5 0 0.300666 0.000352106 9.57845e-10 0.128035
4 5 5.45228e-12 0.5 0.199334 -0.000352106 6.1452e-11 -0.128035
5 5 1 0.5 0.699334 0.00105397 -3.74689e-10 0.0516029
6 5 0.5 0 0.800666 -0.00105397 2.97587e-10 -0.0516029
