ITEM: TIMESTEP
0
ITEM: NUMBER OF ATOMS
6
ITEM: BOX BOUNDS xy xz yz pp pp pp
0.0000000000000000e+00 3.5488465600999999e+00 0.0000000000000000e+00
0.0000000000000000e+00 3.5488465600999999e+00 0.0000000000000000e+00
0.0000000000000000e+00 5.1727657515000001e+00 0.0000000000000000e+00
ITEM: ATOMS id type xs ys zs fx fy fz
1 1 0.5 0.5 0.5 -5.01602e-10 -3.85009e-10 1.34498e-09
2 1 0 2.81782e-11 0 5.01603e-10 -7.05793e-10 -8.5938e-10
3 5 0.5 0 0.300666 -2.08147e-10 1.0233e-09 -0.000745503
4 5 0 0.5 0.199334 2.08148e-10 1.2499e-10 0.000745502
5 5 0 0.5 0.699334 9.19906e-10 -3.66427e-10 0.000745503
6 5 0.5 0 0.800666 -9.19909e-10 3.0894e-10 -0.000745502
