ITEM: TIMESTEP
0
ITEM: NUMBER OF ATOMS
6
ITEM: BOX BOUNDS xy xz yz pp pp pp
0.0000000000000000e+00 3.5484916754000002e+00 0.0000000000000000e+00
0.0000000000000000e+00 3.5843350257000002e+00 0.0000000000000000e+00
0.0000000000000000e+00 5.1732830798000000e+00 0.0000000000000000e+00
ITEM: ATOMS id type xs ys zs fx fy fz
1 1 0.5 0.5 0.5 -9.91406e-10 -3.02192e-10 -0.211873
2 1 0 2.78992e-11 0 9.91408e-10 -6.40012e-10 0.211873
3 5 0.5 0 0.300666 -3.95298e-10 9.58001e-10 0.128567
4 5 0 0.5 0.199334 3.95298e-10 6.14073e-11 -0.128567
5 5 0 0.5 0.699334 1.81286e-09 -3.74727e-10 0.0530048
6 5 0.5 0 0.800666 -1.81286e-09 2.97523e-10 -0.0530048
