ITEM: TIMESTEP
0
ITEM: NUMBER OF ATOMS
6
ITEM: BOX BOUNDS xy xz yz pp pp pp
0.0000000000000000e+00 3.5669456776000001e+00 3.5488469999999999e-04
0.0000000000000000e+00 3.5488465600999999e+00 0.0000000000000000e+00
0.0000000000000000e+00 5.1732830798000000e+00 0.0000000000000000e+00
ITEM: ATOMS id type xs ys zs fx fy fz
1 1 0.5 0.5 0.5 -2.98301e-10 -3.80117e-10 0.106923
2 1 1 2.81782e-11 0 2.98281e-10 -7.1005e-10 -0.106923
3 5 0.5 0 0.300666 -5.3641e-10 1.01566e-09 -0.0265207
4 5 1 0.5 0.199334 5.3649e-10 1.27198e-10 0.0265207
5 5 1 0.5 0.699334 1.33371e-09 -3.6467e-10 -0.0666961
6 5 0.5 0 0.800666 -1.33376e-09 3.11975e-10 0.0666961
