ITEM: TIMESTEP
0
ITEM: NUMBER OF ATOMS
6
ITEM: BOX BOUNDS xy xz yz pp pp pp
-2.5869001999999999e-02 3.5492014448000000e+00 0.0000000000000000e+00
0.0000000000000000e+00 3.5488465600999999e+00 -2.5869001999999999e-02
0.0000000000000000e+00 5.1732830798000000e+00 0.0000000000000000e+00
ITEM: ATOMS id type xs ys zs fx fy fz
1 1 0.5 0.5 0.5 -0.0646213 -3.84661e-10 0.00172087
2 1 0 2.81782e-11 0 0.0646213 -7.05479e-10 -0.00172087
3 5 0.5 0 0.300666 0.0188181 1.02285e-09 -0.00029633
4 5 1.25447e-11 0.5 0.199334 -0.0188181 1.2478e-10 0.00029633
5 5 1.25447e-11 0.5 0.699334 0.0524892 -3.66421e-10 -9.29767e-05
6 5 0.5 0 0.800666 -0.0524892 3.08934e-10 9.29767e-05
