ITEM: TIMESTEP
0
ITEM: NUMBER OF ATOMS
6
ITEM: BOX BOUNDS xy xz yz pp pp pp
0.0000000000000000e+00 3.5488465600999999e+00 0.0000000000000000e+00
0.0000000000000000e+00 3.5492014448000000e+00 0.0000000000000000e+00
0.0000000000000000e+00 5.1732830798000000e+00 0.0000000000000000e+00
ITEM: ATOMS id type xs ys zs fx fy fz
1 1 0.5 0.5 0.5 -5.01221e-10 1.16649e-10 -0.00217999
2 1 0 2.81754e-11 0 5.01219e-10 -1.20535e-09 0.00217999
3 5 0.5 0 0.300666 -2.07959e-10 1.03373e-10 0.00139261
4 5 0 0.5 0.199334 2.0796e-10 1.04305e-09 -0.00139261
5 5 0 0.5 0.699334 9.19502e-10 -1.58649e-10 0.000539646
6 5 0.5 1 0.800666 -9.19503e-10 1.00923e-10 -0.000539646
