ITEM: TIMESTEP
0
ITEM: NUMBER OF ATOMS
6
ITEM: BOX BOUNDS xy xz yz pp pp pp
0.0000000000000000e+00 3.5307492170999999e+00 0.0000000000000000e+00
0.0000000000000000e+00 3.5488465600999999e+00 0.0000000000000000e+00
0.0000000000000000e+00 5.1732830798000000e+00 0.0000000000000000e+00
ITEM: ATOMS id type xs ys zs fx fy fz
1 1 0.5 0.5 0.5 -5.41261e-10 -3.89484e-10 -0.113461
2 1 1 2.81782e-11 0 5.41277e-10 -7.00288e-10 0.113461
3 5 0.5 0 0.300666 -2.16902e-10 1.03066e-09 0.028536
4 5 1 0.5 0.199334 2.16906e-10 1.21959e-10 -0.028536
5 5 0 0.5 0.699334 9.56413e-10 -3.6857e-10 0.0737454
6 5 0.5 0 0.800666 -9.56435e-10 3.05721e-10 -0.0737454
