ITEM: TIMESTEP
0
ITEM: NUMBER OF ATOMS
6
ITEM: BOX BOUNDS xy xz yz pp pp pp
0.0000000000000000e+00 3.5488465600999999e+00 0.0000000000000000e+00
0.0000000000000000e+00 3.5484916754000002e+00 0.0000000000000000e+00
0.0000000000000000e+00 5.2250159105999998e+00 0.0000000000000000e+00
ITEM: ATOMS id type xs ys zs fx fy fz
1 1 0.5 0.5 0.5 -4.69701e-10 -8.28128e-10 0.00215806
2 1 0 2.8181e-11 0 4.69696e-10 -2.07078e-10 -0.00215806
3 5 0.5 0 0.300666 -2.00242e-10 1.88976e-09 0.0733681
4 5 0 0.5 0.199334 2.00243e-10 -7.92146e-10 -0.0733681
5 5 0 0.5 0.699334 8.94227e-10 -5.69866e-10 -0.0751737
6 5 0.5 0 0.800666 -8.94221e-10 5.07464e-10 0.0751737
