ITEM: TIMESTEP
0
ITEM: NUMBER OF ATOMS
6
ITEM: BOX BOUNDS xy xz yz pp pp pp
0.0000000000000000e+00 3.5492014448000000e+00 0.0000000000000000e+00
0.0000000000000000e+00 3.5488465600999999e+00 0.0000000000000000e+00
0.0000000000000000e+00 5.1215502490000002e+00 0.0000000000000000e+00
ITEM: ATOMS id type xs ys zs fx fy fz
1 1 0.5 0.5 0.5 1.19904e-14 -4.13345e-10 0.00220637
2 1 0 2.81782e-11 0 -1.17684e-14 -7.33868e-10 -0.00220637
3 5 0.5 0 0.300666 1.19349e-15 1.05247e-09 -0.0759428
4 5 0 0.5 0.199334 -3.2474e-15 1.4759e-10 0.0759428
5 5 0 0.5 0.699334 -1.71738e-14 -3.64104e-10 0.0738841
6 5 0.5 0 0.800666 1.73472e-14 3.11254e-10 -0.0738841
