ITEM: TIMESTEP
0
ITEM: NUMBER OF ATOMS
6
ITEM: BOX BOUNDS xy xz yz pp pp pp
-5.1727657500000003e-02 3.5484916754000002e+00 0.0000000000000000e+00
0.0000000000000000e+00 3.5488465600999999e+00 -5.1727657500000003e-02
0.0000000000000000e+00 5.1732830798000000e+00 0.0000000000000000e+00
ITEM: ATOMS id type xs ys zs fx fy fz
1 1 0.5 0.5 0.5 -0.129494 -3.84917e-10 -0.00402535
2 1 0 2.81782e-11 0 0.129494 -7.04929e-10 0.00402535
3 5 0.5 0 0.300666 0.0377374 1.02311e-09 0.00152397
4 5 2.24929e-11 0.5 0.199334 -0.0377374 1.24596e-10 -0.00152397
5 5 8.40261e-12 0.5 0.699334 0.105306 -3.66532e-10 0.00657871
6 5 0.5 0 0.800666 -0.105306 3.0867e-10 -0.00657871
