ITEM: TIMESTEP
0
ITEM: NUMBER OF ATOMS
6
ITEM: BOX BOUNDS xy xz yz pp pp pp
0.0000000000000000e+00 3.5133580945000000e+00 0.0000000000000000e+00
0.0000000000000000e+00 3.5492014448000000e+00 0.0000000000000000e+00
0.0000000000000000e+00 5.1732830798000000e+00 0.0000000000000000e+00
ITEM: ATOMS id type xs ys zs fx fy fz
1 1 0.5 0.5 0.5 -5.8044e-10 1.13693e-10 -0.228996
2 1 1 2.81754e-11 0 5.80467e-10 -1.201e-09 0.228996
3 5 0.5 0 0.300666 -2.25219e-10 1.03991e-10 0.0586609
4 5 1 0.5 0.199334 2.25219e-10 1.05186e-09 -0.0586609
5 5 0 0.5 0.699334 9.9291e-10 -1.51678e-10 0.150881
6 5 0.5 0 0.800666 -9.9294e-10 8.31383e-11 -0.150881
