ITEM: TIMESTEP
0
ITEM: NUMBER OF ATOMS
6
ITEM: BOX BOUNDS xy xz yz pp pp pp
0.0000000000000000e+00 3.5488465600999999e+00 0.0000000000000000e+00
0.0000000000000000e+00 3.6002193329000001e+00 0.0000000000000000e+00
0.0000000000000000e+00 5.1732830798000000e+00 5.1727657500000003e-02
ITEM: ATOMS id type xs ys zs fx fy fz
1 1 0.5 0.5 0.5 -5.01215e-10 -0.129494 0.00402535
2 1 0 2.8181e-11 0 5.01216e-10 0.129494 -0.00402535
3 5 0.5 8.40239e-12 0.300666 -2.08244e-10 0.105306 -0.00657871
4 5 0 0.5 0.199334 2.08243e-10 -0.105306 0.00657871
5 5 0 0.5 0.699334 9.19827e-10 0.0377374 -0.00152397
6 5 0.5 2.24931e-11 0.800666 -9.19826e-10 -0.0377374 0.00152397
