ITEM: TIMESTEP
0
ITEM: NUMBER OF ATOMS
6
ITEM: BOX BOUNDS xy xz yz pp pp pp
-3.5488469999999999e-04 3.5488465600999999e+00 -3.5488469999999999e-04
0.0000000000000000e+00 3.5488465600999999e+00 0.0000000000000000e+00
0.0000000000000000e+00 5.1215502490000002e+00 0.0000000000000000e+00
ITEM: ATOMS id type xs ys zs fx fy fz
1 1 0.5 0.5 0.5 -6.92342e-10 -4.13513e-10 -1.10363e-07
2 1 2.81782e-15 2.81782e-11 0 6.92338e-10 -7.33675e-10 1.10363e-07
3 5 0.5 0 0.300666 1.21518e-10 1.05255e-09 -0.0753512
4 5 1.40905e-11 0.5 0.199334 -1.216e-10 1.47604e-10 0.0753512
5 5 1.40905e-11 0.5 0.699334 4.93544e-10 -3.64121e-10 0.0753513
6 5 0.5 0 0.800666 -4.93455e-10 3.11159e-10 -0.0753513
