ITEM: TIMESTEP
0
ITEM: NUMBER OF ATOMS
6
ITEM: BOX BOUNDS xy xz yz pp pp pp
-5.1732830000000005e-04 3.5488465600999999e+00 0.0000000000000000e+00
0.0000000000000000e+00 3.5311023273000002e+00 -5.1732830000000005e-04
0.0000000000000000e+00 5.1732830798000000e+00 0.0000000000000000e+00
ITEM: ATOMS id type xs ys zs fx fy fz
1 1 0.5 0.5 0.5 -0.00130173 -4.2758e-10 0.111204
2 1 0 2.83198e-11 0 0.00130173 -7.39868e-10 -0.111204
3 5 0.5 0 0.300666 0.000391479 1.05716e-09 -0.0722491
4 5 5.45228e-12 0.5 0.199334 -0.000391479 1.58288e-10 0.0722491
5 5 1 0.5 0.699334 0.00104835 -3.62654e-10 -0.027965
6 5 0.5 1 0.800666 -0.00104835 3.14656e-10 0.027965
