ITEM: TIMESTEP
0
ITEM: NUMBER OF ATOMS
6
ITEM: BOX BOUNDS xy xz yz pp pp pp
0.0000000000000000e+00 3.5311023273000002e+00 0.0000000000000000e+00
0.0000000000000000e+00 3.5493638883999998e+00 0.0000000000000000e+00
0.0000000000000000e+00 5.1732830798000000e+00 5.1732830000000005e-04
ITEM: ATOMS id type xs ys zs fx fy fz
1 1 0.5 0.5 0.5 -5.40483e-10 -0.00130173 -0.111204
2 1 1 2.81782e-11 0 5.40486e-10 0.00130173 0.111204
3 5 0.5 1 0.300666 -2.16732e-10 0.00104836 0.027965
4 5 1 0.5 0.199334 2.16735e-10 -0.00104835 -0.027965
5 5 0 0.5 0.699334 9.55696e-10 0.000391479 0.0722491
6 5 0.5 5.45228e-12 0.800666 -9.55702e-10 -0.000391479 -0.0722491
