ITEM: TIMESTEP
0
ITEM: NUMBER OF ATOMS
6
ITEM: BOX BOUNDS xy xz yz pp pp pp
0.0000000000000000e+00 3.5130067587000000e+00 0.0000000000000000e+00
0.0000000000000000e+00 3.5488465600999999e+00 0.0000000000000000e+00
0.0000000000000000e+00 5.1732830798000000e+00 0.0000000000000000e+00
ITEM: ATOMS id type xs ys zs fx fy fz
1 1 0.5 0.5 0.5 -5.81302e-10 -3.94182e-10 -0.22915
2 1 1 2.81782e-11 0 5.81323e-10 -6.94628e-10 0.22915
3 5 0.5 0 0.300666 -2.25507e-10 1.03827e-09 0.0578838
4 5 1 0.5 0.199334 2.25509e-10 1.19002e-10 -0.0578838
5 5 0 0.5 0.699334 9.93818e-10 -3.70771e-10 0.151927
6 5 0.5 0 0.800666 -9.93839e-10 3.02307e-10 -0.151927
