LAMMPS data file via write_data, version 2 Aug 2023, timestep = 0, units = metal

6 atoms
5 atom types

0 3.5488465601 xlo xhi
0 3.5492014448 ylo yhi
0 5.1732830798 zlo zhi
0 0 0.025869002 xy xz yz

Masses

1 178.49
2 91.224
3 88.90600000000001
4 26.982
5 15.999

Atoms # atomic

1 1 1.7744232801 1.787535223399999 2.5866415399 0 0 0
2 1 0 9.999999999999998e-11 0 0 0 0
3 5 1.7744232801 0.007777929400000002 1.5554303305000001 0 0 0
4 5 0 1.7797572939999997 1.0312112094 0 0 0
5 5 0 1.7926917951000003 3.6178527493000003 0 0 0
6 5 1.7744232801 0.0207124304 4.1420718704 0 0 0

Velocities

1 0 0 0
2 0 0 0
3 0 0 0
4 0 0 0
5 0 0 0
6 0 0 0
