ITEM: TIMESTEP
0
ITEM: NUMBER OF ATOMS
6
ITEM: BOX BOUNDS xy xz yz pp pp pp
0.0000000000000000e+00 3.5488465600999999e+00 0.0000000000000000e+00
0.0000000000000000e+00 3.5488465600999999e+00 0.0000000000000000e+00
0.0000000000000000e+00 5.1996694101000003e+00 0.0000000000000000e+00
ITEM: ATOMS id type xs ys zs fx fy fz
1 1 0.5 0.5 0.5 -4.85254e-10 -3.70404e-10 -1.33221e-09
2 1 0 2.81782e-11 0 4.85249e-10 -6.9094e-10 8.57202e-10
3 5 0.5 0 0.300666 -2.04033e-10 1.00833e-09 0.0381846
4 5 0 0.5 0.199334 2.04034e-10 1.13105e-10 -0.0381846
5 5 0 0.5 0.699334 9.06547e-10 -3.68026e-10 -0.0381846
6 5 0.5 0 0.800666 -9.06543e-10 3.07932e-10 0.0381846
