ITEM: TIMESTEP
0
ITEM: NUMBER OF ATOMS
6
ITEM: BOX BOUNDS xy xz yz pp pp pp
0.0000000000000000e+00 3.5665907929000000e+00 1.7744232799999999e-02
0.0000000000000000e+00 3.5488465600999999e+00 0.0000000000000000e+00
0.0000000000000000e+00 5.1738004081000000e+00 0.0000000000000000e+00
ITEM: ATOMS id type xs ys zs fx fy fz
1 1 0.5 0.5 0.5 -5.05284e-10 -3.82513e-10 -0.000272548
2 1 1 2.81782e-11 0 5.05576e-10 -7.06993e-10 0.000272548
3 5 0.5 0 0.300666 -2.0944e-10 1.02708e-09 0.000895774
4 5 1 0.5 0.199334 2.13419e-10 1.19993e-10 -0.000895773
5 5 1 0.5 0.699334 9.21343e-10 -3.72329e-10 -0.000654266
6 5 0.5 0 0.800666 -9.25608e-10 3.1476e-10 0.000654265
