ITEM: TIMESTEP
0
ITEM: NUMBER OF ATOMS
6
ITEM: BOX BOUNDS xy xz yz pp pp pp
0.0000000000000000e+00 3.5488465600999999e+00 0.0000000000000000e+00
-5.1732830799999997e-02 3.5488465600999999e+00 0.0000000000000000e+00
0.0000000000000000e+00 5.1738004081000000e+00 -5.1732830799999997e-02
ITEM: ATOMS id type xs ys zs fx fy fz
1 1 0.5 0.5 0.5 -5.00838e-10 0.129365 0.0018389
2 1 0 2.81782e-11 0 5.00836e-10 -0.129365 -0.0018389
3 5 0.5 1.49199e-12 0.300666 -2.08056e-10 -0.105067 -0.00443691
4 5 0 0.5 0.199334 2.08056e-10 0.105067 0.00443691
5 5 0 0.5 0.699334 9.1943e-10 -0.0376309 -0.00172826
6 5 0.5 1.63288e-12 0.800666 -9.19429e-10 0.0376309 0.00172826
