ITEM: TIMESTEP
0
ITEM: NUMBER OF ATOMS
6
ITEM: BOX BOUNDS xy xz yz pp pp pp
0.0000000000000000e+00 3.5488465600999999e+00 0.0000000000000000e+00
0.0000000000000000e+00 3.5493638883999998e+00 0.0000000000000000e+00
0.0000000000000000e+00 5.1732830798000000e+00 5.1732830000000005e-04
ITEM: ATOMS id type xs ys zs fx fy fz
1 1 0.5 0.5 0.5 -5.01282e-10 -0.0012929 1.83896e-07
2 1 0 2.81782e-11 0 5.01284e-10 0.0012929 -1.83895e-07
3 5 0.5 1 0.300666 -2.08067e-10 0.00105114 4.65055e-06
4 5 0 0.5 0.199334 2.08068e-10 -0.00105114 -4.65056e-06
5 5 0 0.5 0.699334 9.1964e-10 0.000377223 -5.26813e-06
6 5 0.5 5.45231e-12 0.800666 -9.19644e-10 -0.000377223 5.26813e-06
