ITEM: TIMESTEP
0
ITEM: NUMBER OF ATOMS
6
ITEM: BOX BOUNDS xy xz yz pp pp pp
0.0000000000000000e+00 3.5488465600999999e+00 0.0000000000000000e+00
0.0000000000000000e+00 3.5747129754999998e+00 0.0000000000000000e+00
0.0000000000000000e+00 5.1738004081000000e+00 2.5866415399999999e-02
ITEM: ATOMS id type xs ys zs fx fy fz
1 1 0.5 0.5 0.5 -5.00941e-10 -0.0646353 0.000459389
2 1 0 2.81782e-11 0 5.00932e-10 0.0646353 -0.000459389
3 5 0.5 1.33431e-11 0.300666 -2.08004e-10 0.0525165 -0.000544074
4 5 0 0.5 0.199334 2.08003e-10 -0.0525165 0.000544075
5 5 0 0.5 0.699334 9.19402e-10 0.0188369 -0.00099902
6 5 0.5 1.32726e-11 0.800666 -9.19392e-10 -0.0188369 0.000999019
