ITEM: TIMESTEP
0
ITEM: NUMBER OF ATOMS
6
ITEM: BOX BOUNDS xy xz yz pp pp pp
0.0000000000000000e+00 3.5488465600999999e+00 0.0000000000000000e+00
0.0000000000000000e+00 3.5743555042000001e+00 0.0000000000000000e+00
0.0000000000000000e+00 5.1732830798000000e+00 2.5863828799999999e-02
ITEM: ATOMS id type xs ys zs fx fy fz
1 1 0.5 0.5 0.5 -5.01313e-10 -0.0646999 0.00264229
2 1 0 2.8181e-11 0 5.01312e-10 0.0646999 -0.00264229
3 5 0.5 1.40553e-11 0.300666 -2.08193e-10 0.0526362 -0.00268473
4 5 0 0.5 0.199334 2.08192e-10 -0.0526362 0.00268473
5 5 0 0.5 0.699334 9.19796e-10 0.0188902 -0.000794064
6 5 0.5 1.40553e-11 0.800666 -9.19792e-10 -0.0188902 0.000794064
