ITEM: TIMESTEP
0
ITEM: NUMBER OF ATOMS
6
ITEM: BOX BOUNDS xy xz yz pp pp pp
0.0000000000000000e+00 3.5311023273000002e+00 0.0000000000000000e+00
0.0000000000000000e+00 3.5488465600999999e+00 0.0000000000000000e+00
0.0000000000000000e+00 5.1727657515000001e+00 0.0000000000000000e+00
ITEM: ATOMS id type xs ys zs fx fy fz
1 1 0.5 0.5 0.5 -5.4079e-10 -3.89673e-10 -0.111217
2 1 1 2.81782e-11 0 5.40805e-10 -7.00676e-10 0.111217
3 5 0.5 0 0.300666 -2.1681e-10 1.0308e-09 0.0272382
4 5 1 0.5 0.199334 2.16811e-10 1.2224e-10 -0.0272382
5 5 0 0.5 0.699334 9.55957e-10 -3.685e-10 0.0730412
6 5 0.5 0 0.800666 -9.55974e-10 3.05809e-10 -0.0730412
