LAMMPS data file via write_data, version 2 Aug 2023, timestep = 0, units = metal

6 atoms
5 atom types

0 3.5488465601 xlo xhi
0 3.5488465601 ylo yhi
0 5.1732830798 zlo zhi
0 0 0.0512155025 xy xz yz

Masses

1 178.49
2 91.224
3 88.90600000000001
4 26.982
5 15.999

Atoms # atomic

1 1 1.7744232801 1.8000310313000003 2.5866415399 0 0 0
2 1 0 1e-10 0 0 0 0
3 5 1.7744232801 0.01539876030000045 1.5554303305000001 0 1 0
4 5 0 1.7846322710999998 1.0312112094 0 0 0
5 5 0 1.8102400222999997 3.6178527493000003 0 0 0
6 5 1.7744232801 3.5898530716 4.1420718704 0 0 0

Velocities

1 0 0 0
2 0 0 0
3 0 0 0
4 0 0 0
5 0 0 0
6 0 0 0
