ITEM: TIMESTEP
0
ITEM: NUMBER OF ATOMS
6
ITEM: BOX BOUNDS xy xz yz pp pp pp
0.0000000000000000e+00 3.5314572120000003e+00 3.5488469999999999e-04
0.0000000000000000e+00 3.5488465600999999e+00 0.0000000000000000e+00
0.0000000000000000e+00 5.1732830798000000e+00 0.0000000000000000e+00
ITEM: ATOMS id type xs ys zs fx fy fz
1 1 0.5 0.5 0.5 -3.84423e-10 -3.89412e-10 -0.111204
2 1 1 2.81782e-11 0 3.84443e-10 -7.00373e-10 0.111204
3 5 0.5 0 0.300666 -5.55409e-10 1.03062e-09 0.0279656
4 5 1 0.5 0.199334 5.55485e-10 1.21896e-10 -0.0279656
5 5 1 0.5 0.699334 1.40518e-09 -3.68732e-10 0.0722493
6 5 0.5 0 0.800666 -1.40528e-09 3.05998e-10 -0.0722493
