ITEM: TIMESTEP
0
ITEM: NUMBER OF ATOMS
6
ITEM: BOX BOUNDS xy xz yz pp pp pp
0.0000000000000000e+00 3.5484916754000002e+00 0.0000000000000000e+00
0.0000000000000000e+00 3.6005793908999997e+00 0.0000000000000000e+00
0.0000000000000000e+00 5.1732830798000000e+00 5.1732830799999997e-02
ITEM: ATOMS id type xs ys zs fx fy fz
1 1 0.5 0.5 0.5 -1.00385e-09 -0.129433 -0.000341113
2 1 0 2.81782e-11 0 1.00386e-09 0.129433 0.000341113
3 5 0.5 1 0.300666 -4.16622e-10 0.105154 -0.00464284
4 5 0 0.5 0.199334 4.1662e-10 -0.105154 0.00464284
5 5 0 0.5 0.699334 1.84079e-09 0.0376929 0.000410102
6 5 0.5 1 0.800666 -1.8408e-09 -0.0376929 -0.000410102
