ITEM: TIMESTEP
0
ITEM: NUMBER OF ATOMS
6
ITEM: BOX BOUNDS xy xz yz pp pp pp
0.0000000000000000e+00 3.5488465600999999e+00 0.0000000000000000e+00
0.0000000000000000e+00 3.5488465600999999e+00 0.0000000000000000e+00
0.0000000000000000e+00 5.1738004081000000e+00 0.0000000000000000e+00
ITEM: ATOMS id type xs ys zs fx fy fz
1 1 0.5 0.5 0.5 -5.00973e-10 -3.84444e-10 -1.34451e-09
2 1 0 2.81782e-11 0 5.00976e-10 -7.05221e-10 8.5931e-10
3 5 0.5 0 0.300666 -2.07985e-10 1.02272e-09 0.000755766
4 5 0 0.5 0.199334 2.07985e-10 1.24537e-10 -0.000755764
5 5 0 0.5 0.699334 9.19385e-10 -3.66487e-10 -0.000755765
6 5 0.5 0 0.800666 -9.19388e-10 3.08896e-10 0.000755764
