ITEM: TIMESTEP
0
ITEM: NUMBER OF ATOMS
6
ITEM: BOX BOUNDS xy xz yz pp pp pp
0.0000000000000000e+00 3.5671081212000000e+00 0.0000000000000000e+00
0.0000000000000000e+00 3.5488465600999999e+00 5.1732830000000005e-04
0.0000000000000000e+00 5.1732830798000000e+00 0.0000000000000000e+00
ITEM: ATOMS id type xs ys zs fx fy fz
1 1 0.5 0.5 0.5 0.00124809 -3.80103e-10 0.106923
2 1 0 2.81782e-11 0 -0.00124809 -7.10061e-10 -0.106923
3 5 0.5 0 0.300666 -0.000339738 1.01556e-09 -0.0265206
4 5 1 0.5 0.199334 0.000339738 1.27301e-10 0.0265206
5 5 8.59383e-12 0.5 0.699334 -0.000973114 -3.64466e-10 -0.0666956
6 5 0.5 0 0.800666 0.000973114 3.11767e-10 0.0666956
