
6 atoms
5 atom types

0.0000000000 3.5488465601 xlo xhi
0.0000000000 3.5133580945 ylo yhi
0.0000000000 5.1738004081 zlo zhi
0.0000000000 0.0000000000 0.0000000000 xy xz yz

Masses

1 178.4900
2 91.2240
3 88.9060
4 26.9820
5 15.9990

Atoms # atomic

1 1 1.7744232801 1.7566790473 2.5869002041
2 1 0.0000000000 0.0000000001 0.0000000000
3 5 1.7744232801 0.0000000000 1.5555858735
4 5 0.0000000000 1.7566790473 1.0313143305
5 5 0.0000000000 1.7566790473 3.6182145346
6 5 1.7744232801 3.5133580945 4.1424860776

