ITEM: TIMESTEP
0
ITEM: NUMBER OF ATOMS
6
ITEM: BOX BOUNDS xy xz yz pp pp pp
0.0000000000000000e+00 3.5488465600999999e+00 0.0000000000000000e+00
0.0000000000000000e+00 3.5493587150999999e+00 0.0000000000000000e+00
0.0000000000000000e+00 5.1215502490000002e+00 5.1215500000000003e-04
ITEM: ATOMS id type xs ys zs fx fy fz
1 1 0.5 0.5 0.5 -5.32259e-10 -0.00133281 1.98751e-07
2 1 0 2.81782e-11 0 5.32258e-10 0.00133281 -1.98751e-07
3 5 0.5 1.34314e-12 0.300666 -2.16178e-10 0.0011308 -0.0753518
4 5 0 0.5 0.199334 2.16178e-10 -0.0011308 0.0753518
5 5 0 0.5 0.699334 9.46122e-10 0.000409465 0.0753511
6 5 0.5 1.34314e-12 0.800666 -9.46117e-10 -0.000409465 -0.0753511
