ITEM: TIMESTEP
0
ITEM: NUMBER OF ATOMS
6
ITEM: BOX BOUNDS xy xz yz pp pp pp
0.0000000000000000e+00 3.5138754228000000e+00 0.0000000000000000e+00
0.0000000000000000e+00 3.5488465600999999e+00 5.1732830000000005e-04
0.0000000000000000e+00 5.1732830798000000e+00 0.0000000000000000e+00
ITEM: ATOMS id type xs ys zs fx fy fz
1 1 0.5 0.5 0.5 0.00138877 -3.9409e-10 -0.226816
2 1 1 2.81782e-11 0 -0.00138877 -6.94741e-10 0.226816
3 5 0.5 0 0.300666 -0.00045369 1.03812e-09 0.05729
4 5 1 0.5 0.199334 0.00045369 1.19056e-10 -0.05729
5 5 8.72404e-12 0.5 0.699334 -0.00121234 -3.70725e-10 0.150321
6 5 0.5 0 0.800666 0.00121234 3.02381e-10 -0.150321
