ITEM: TIMESTEP
0
ITEM: NUMBER OF ATOMS
6
ITEM: BOX BOUNDS xy xz yz pp pp pp
-3.5484916800000002e-02 3.5484916754000002e+00 -3.5484916800000002e-02
0.0000000000000000e+00 3.5488465600999999e+00 0.0000000000000000e+00
0.0000000000000000e+00 5.1732830798000000e+00 0.0000000000000000e+00
ITEM: ATOMS id type xs ys zs fx fy fz
1 1 0.5 0.5 0.5 -9.95143e-10 -3.91851e-10 -0.00327105
2 1 2.81782e-13 2.81782e-11 0 9.9456e-10 -6.9774e-10 0.00327105
3 5 0.5 0 0.300666 -4.1399e-10 1.00558e-09 0.00111325
4 5 1.40891e-13 0.5 0.199334 4.06049e-10 1.41599e-10 -0.00111325
5 5 1.40891e-13 0.5 0.699334 1.83704e-09 -3.43882e-10 0.00178728
6 5 0.5 0 0.800666 -1.82852e-09 2.86288e-10 -0.00178728
