ITEM: TIMESTEP
0
ITEM: NUMBER OF ATOMS
6
ITEM: BOX BOUNDS xy xz yz pp pp pp
0.0000000000000000e+00 3.5488465600999999e+00 0.0000000000000000e+00
0.0000000000000000e+00 3.6009394489000002e+00 0.0000000000000000e+00
0.0000000000000000e+00 5.1732830798000000e+00 5.1738004099999998e-02
ITEM: ATOMS id type xs ys zs fx fy fz
1 1 0.5 0.5 0.5 -5.01082e-10 -0.129337 -0.000342162
2 1 0 2.81754e-11 0 5.0109e-10 0.129337 0.000342162
3 5 0.5 1 0.300666 -2.08029e-10 0.105012 -0.00379926
4 5 0 0.5 0.199334 2.08029e-10 -0.105012 0.00379926
5 5 0 0.5 0.699334 9.19538e-10 0.0375935 -0.00043313
6 5 0.5 1 0.800666 -9.19548e-10 -0.0375935 0.00043313
