ITEM: TIMESTEP
0
ITEM: NUMBER OF ATOMS
6
ITEM: BOX BOUNDS xy xz yz pp pp pp
-1.7744232799999999e-02 3.5488465600999999e+00 -1.7744232799999999e-02
0.0000000000000000e+00 3.5488465600999999e+00 0.0000000000000000e+00
0.0000000000000000e+00 5.1738004081000000e+00 0.0000000000000000e+00
ITEM: ATOMS id type xs ys zs fx fy fz
1 1 0.5 0.5 0.5 -4.96593e-10 -3.86207e-10 -0.000272548
2 1 1.40891e-13 2.81782e-11 0 4.96304e-10 -7.03298e-10 0.000272548
3 5 0.5 0 0.300666 -2.06619e-10 1.01833e-09 0.000895774
4 5 7.04454e-14 0.5 0.199334 2.02646e-10 1.28734e-10 -0.000895773
5 5 7.04454e-14 0.5 0.699334 9.17482e-10 -3.60842e-10 -0.000654266
6 5 0.5 0 0.800666 -9.13218e-10 3.03275e-10 0.000654265
