ITEM: TIMESTEP
0
ITEM: NUMBER OF ATOMS
6
ITEM: BOX BOUNDS xy xz yz pp pp pp
-1.7744232799999999e-02 3.5488465600999999e+00 -1.7744232799999999e-02
0.0000000000000000e+00 3.5492014448000000e+00 0.0000000000000000e+00
0.0000000000000000e+00 5.1732830798000000e+00 0.0000000000000000e+00
ITEM: ATOMS id type xs ys zs fx fy fz
1 1 0.5 0.5 0.5 -4.96703e-10 1.14767e-10 -0.00245223
2 1 1.40877e-13 2.81754e-11 0 4.96409e-10 -1.20332e-09 0.00245223
3 5 0.5 0 0.300666 -2.09424e-10 9.90227e-11 0.00153239
4 5 4.33681e-19 0.5 0.199334 2.05453e-10 1.04725e-09 -0.00153239
5 5 4.33681e-19 0.5 0.699334 9.23174e-10 -1.5292e-10 0.000641037
6 5 0.5 0 0.800666 -9.18912e-10 9.52018e-11 -0.000641037
