ITEM: TIMESTEP
0
ITEM: NUMBER OF ATOMS
6
ITEM: BOX BOUNDS xy xz yz pp pp pp
0.0000000000000000e+00 3.5488465600999999e+00 0.0000000000000000e+00
0.0000000000000000e+00 3.5484916754000002e+00 0.0000000000000000e+00
0.0000000000000000e+00 5.1991494952000004e+00 0.0000000000000000e+00
ITEM: ATOMS id type xs ys zs fx fy fz
1 1 0.5 0.5 0.5 -4.85637e-10 -8.57863e-10 0.00216956
2 1 0 2.8181e-11 0 4.8564e-10 -2.0556e-10 -0.00216956
3 5 0.5 0 0.300666 -2.04224e-10 1.91678e-09 0.0360867
4 5 0 0.5 0.199334 2.0422e-10 -7.93512e-10 -0.0360867
5 5 0 0.5 0.699334 9.06946e-10 -5.72198e-10 -0.0379573
6 5 0.5 0 0.800666 -9.06945e-10 5.12352e-10 0.0379573
