ITEM: TIMESTEP
0
ITEM: NUMBER OF ATOMS
6
ITEM: BOX BOUNDS xy xz yz pp pp pp
-2.5866415399999999e-02 3.5488465600999999e+00 0.0000000000000000e+00
0.0000000000000000e+00 3.5488465600999999e+00 -2.5866415399999999e-02
0.0000000000000000e+00 5.1727657515000001e+00 0.0000000000000000e+00
ITEM: ATOMS id type xs ys zs fx fy fz
1 1 0.5 0.5 0.5 -0.064686 -3.85033e-10 -0.00046031
2 1 0 2.81782e-11 0 0.064686 -7.05662e-10 0.00046031
3 5 0.5 0 0.300666 0.0188714 1.02329e-09 -0.000501933
4 5 1.33272e-11 0.5 0.199334 -0.0188714 1.24953e-10 0.000501932
5 5 1.32567e-11 0.5 0.699334 0.0526088 -3.66438e-10 0.00204553
6 5 0.5 0 0.800666 -0.0526088 3.08896e-10 -0.00204553
