ITEM: TIMESTEP
0
ITEM: NUMBER OF ATOMS
6
ITEM: BOX BOUNDS xy xz yz pp pp pp
-5.1732830000000005e-04 3.5488465600999999e+00 0.0000000000000000e+00
-5.1732830799999997e-02 3.5488465600999999e+00 -5.1732830000000005e-04
0.0000000000000000e+00 5.1732830798000000e+00 -5.1732830799999997e-02
ITEM: ATOMS id type xs ys zs fx fy fz
1 1 0.5 0.5 0.5 -0.001293 0.129416 0.00184055
2 1 0 2.81782e-11 0 0.001293 -0.129416 -0.00184055
3 5 0.5 1.57835e-12 0.300666 0.000377404 -0.105159 -0.00518777
4 5 5.45228e-12 0.5 0.199334 -0.000377404 0.105159 0.00518777
5 5 1 0.5 0.699334 0.00105082 -0.0376654 -0.000977751
6 5 0.5 1.57835e-12 0.800666 -0.00105082 0.0376654 0.000977751
