ITEM: TIMESTEP
0
ITEM: NUMBER OF ATOMS
6
ITEM: BOX BOUNDS xy xz yz pp pp pp
0.0000000000000000e+00 3.5492014448000000e+00 3.5488469999999999e-04
0.0000000000000000e+00 3.5488465600999999e+00 0.0000000000000000e+00
0.0000000000000000e+00 5.1991494952000004e+00 0.0000000000000000e+00
ITEM: ATOMS id type xs ys zs fx fy fz
1 1 0.5 0.5 0.5 -3.25387e-10 -3.70708e-10 -1.08436e-07
2 1 1 2.81782e-11 0 3.25372e-10 -6.9121e-10 1.08436e-07
3 5 0.5 0 0.300666 -5.42118e-10 1.00873e-09 0.0374344
4 5 1 0.5 0.199334 5.42197e-10 1.13229e-10 -0.0374344
5 5 1 0.5 0.699334 1.35448e-09 -3.68198e-10 -0.0374343
6 5 0.5 0 0.800666 -1.35455e-09 3.08162e-10 0.0374343
