ITEM: TIMESTEP
0
ITEM: NUMBER OF ATOMS
6
ITEM: BOX BOUNDS xy xz yz pp pp pp
0.0000000000000000e+00 3.5488465600999999e+00 0.0000000000000000e+00
-5.1991489999999999e-04 3.5488465600999999e+00 0.0000000000000000e+00
0.0000000000000000e+00 5.1991494952000004e+00 -5.1991489999999999e-04
ITEM: ATOMS id type xs ys zs fx fy fz
1 1 0.5 0.5 0.5 -4.85573e-10 0.00127457 1.76648e-07
2 1 0 2.81782e-11 0 4.85572e-10 -0.00127457 -1.76648e-07
3 5 0.5 9.39207e-12 0.300666 -2.0411e-10 -0.00100998 0.0374338
4 5 0 0.5 0.199334 2.04112e-10 0.00100998 -0.0374338
5 5 0 0.5 0.699334 9.06805e-10 -0.000362043 -0.0374344
6 5 0.5 1 0.800666 -9.06805e-10 0.000362043 0.0374344
