ITEM: TIMESTEP
0
ITEM: NUMBER OF ATOMS
6
ITEM: BOX BOUNDS xy xz yz pp pp pp
0.0000000000000000e+00 3.5488465600999999e+00 0.0000000000000000e+00
0.0000000000000000e+00 3.5493664749999998e+00 0.0000000000000000e+00
0.0000000000000000e+00 5.1991494952000004e+00 5.1991489999999999e-04
ITEM: ATOMS id type xs ys zs fx fy fz
1 1 0.5 0.5 0.5 -4.8557e-10 -0.00127457 1.76649e-07
2 1 0 2.81782e-11 0 4.85567e-10 0.00127457 -1.76648e-07
3 5 0.5 1 0.300666 -2.0411e-10 0.00100998 0.0374338
4 5 0 0.5 0.199334 2.04111e-10 -0.00100998 -0.0374338
5 5 0 0.5 0.699334 9.06805e-10 0.000362042 -0.0374344
6 5 0.5 4.69701e-12 0.800666 -9.06801e-10 -0.000362042 0.0374344
