ITEM: TIMESTEP
0
ITEM: NUMBER OF ATOMS
6
ITEM: BOX BOUNDS xy xz yz pp pp pp
-5.1732830799999997e-02 3.5488465600999999e+00 0.0000000000000000e+00
0.0000000000000000e+00 3.5488465600999999e+00 -5.1732830799999997e-02
0.0000000000000000e+00 5.1738004081000000e+00 0.0000000000000000e+00
ITEM: ATOMS id type xs ys zs fx fy fz
1 1 0.5 0.5 0.5 -0.129365 -3.8454e-10 -0.0018389
2 1 0 2.81782e-11 0 0.129365 -7.04738e-10 0.0018389
3 5 0.5 0 0.300666 0.0376309 1.02267e-09 0.00172826
4 5 1 0.5 0.199334 -0.0376309 1.24419e-10 -0.00172826
5 5 1 0.5 0.699334 0.105067 -3.6652e-10 0.00443691
6 5 0.5 0 0.800666 -0.105067 3.0871e-10 -0.00443691
