ITEM: TIMESTEP
0
ITEM: NUMBER OF ATOMS
6
ITEM: BOX BOUNDS xy xz yz pp pp pp
0.0000000000000000e+00 3.5665907929000000e+00 1.7744232799999999e-02
-5.1732830000000005e-04 3.5488465600999999e+00 0.0000000000000000e+00
0.0000000000000000e+00 5.1732830798000000e+00 -5.1732830000000005e-04
ITEM: ATOMS id type xs ys zs fx fy fz
1 1 0.5 0.5 0.5 7.16254e-06 0.00129275 -0.000272394
2 1 1 2.81782e-11 0 -7.16254e-06 -0.00129275 0.000272394
3 5 0.5 8.6368e-12 0.300666 -2.62997e-06 -0.00105081 0.000144911
4 5 1 0.5 0.199334 2.62997e-06 0.00105081 -0.000144911
5 5 1 0.5 0.699334 1.57899e-06 -0.000377232 9.61395e-05
6 5 0.5 1 0.800666 -1.579e-06 0.000377232 -9.61395e-05
