ITEM: TIMESTEP
0
ITEM: NUMBER OF ATOMS
6
ITEM: BOX BOUNDS xy xz yz pp pp pp
0.0000000000000000e+00 3.5488465600999999e+00 0.0000000000000000e+00
-2.5866415399999999e-02 3.5488465600999999e+00 0.0000000000000000e+00
0.0000000000000000e+00 5.1732830798000000e+00 -2.5866415399999999e-02
ITEM: ATOMS id type xs ys zs fx fy fz
1 1 0.5 0.5 0.5 -5.01259e-10 0.0646606 0.00045985
2 1 0 2.81782e-11 0 5.01254e-10 -0.0646606 -0.000459851
3 5 0.5 1 0.300666 -2.08085e-10 -0.0525627 -0.00129476
4 5 0 0.5 0.199334 2.08086e-10 0.0525627 0.00129476
5 5 0 0.5 0.699334 9.1966e-10 -0.0188542 -0.000248581
6 5 0.5 1 0.800666 -9.19654e-10 0.0188542 0.000248581
ITEM: TIMESTEP
20
ITEM: NUMBER OF ATOMS
6
ITEM: BOX BOUNDS xy xz yz pp pp pp
0.0000000000000000e+00 3.5488465600999999e+00 0.0000000000000000e+00
-2.5866415399999999e-02 3.5488465600999999e+00 0.0000000000000000e+00
0.0000000000000000e+00 5.1732830798000000e+00 -2.5866415399999999e-02
ITEM: ATOMS id type xs ys zs fx fy fz
1 1 0.5 0.501278 0.499993 3.33067e-16 1.42087e-11 2.6279e-12
2 1 7.04465e-12 0.998722 6.79058e-06 -1.16573e-15 -1.92464e-11 -2.5453e-12
3 5 0.5 0.999906 0.300653 -2.77556e-16 1.05061e-11 -7.01578e-13
4 5 7.0446e-12 0.500094 0.199347 1.63758e-15 -1.44216e-11 6.89226e-13
5 5 7.04467e-12 0.499836 0.699329 -8.74301e-16 1.85022e-11 6.24611e-12
6 5 0.5 0.000163973 0.800671 1.05471e-15 -9.54643e-12 -6.31816e-12
