ITEM: TIMESTEP
0
ITEM: NUMBER OF ATOMS
6
ITEM: BOX BOUNDS xy xz yz pp pp pp
0.0000000000000000e+00 3.6005793908999997e+00 0.0000000000000000e+00
0.0000000000000000e+00 3.5488465600999999e+00 5.1732830799999997e-02
0.0000000000000000e+00 5.1732830798000000e+00 0.0000000000000000e+00
ITEM: ATOMS id type xs ys zs fx fy fz
1 1 0.5 0.5 0.5 0.129416 -3.84833e-10 -0.00184073
2 1 0 2.81782e-11 0 -0.129416 -7.05024e-10 0.00184073
3 5 0.5 0 0.300666 -0.0376654 1.02297e-09 0.000978266
4 5 1.57829e-12 0.5 0.199334 0.0376654 1.24652e-10 -0.000978266
5 5 1.57835e-12 0.5 0.699334 -0.105159 -3.66494e-10 0.00518787
6 5 0.5 0 0.800666 0.105159 3.08734e-10 -0.00518787
ITEM: TIMESTEP
23
ITEM: NUMBER OF ATOMS
6
ITEM: BOX BOUNDS xy xz yz pp pp pp
0.0000000000000000e+00 3.6005793908999997e+00 0.0000000000000000e+00
0.0000000000000000e+00 3.5488465600999999e+00 5.1732830799999997e-02
0.0000000000000000e+00 5.1732830798000000e+00 0.0000000000000000e+00
ITEM: ATOMS id type xs ys zs fx fy fz
1 1 0.502565 0.5 0.500027 -5.88418e-14 -1.7096e-12 -7.80487e-14
2 1 0.997435 1.21168e-11 0.999973 8.11573e-14 -1.72421e-12 7.41907e-14
3 5 0.499677 1.20231e-11 0.300687 5.28466e-14 -1.28072e-12 -1.29896e-14
4 5 0.000322803 0.5 0.199313 -5.46091e-14 -1.26734e-12 8.12683e-14
5 5 0.999814 0.5 0.699384 2.58682e-14 2.99074e-12 -3.72896e-14
6 5 0.500186 1.1083e-11 0.800616 -4.50195e-14 2.99369e-12 -2.66454e-14
