ITEM: TIMESTEP
0
ITEM: NUMBER OF ATOMS
6
ITEM: BOX BOUNDS xy xz yz pp pp pp
-3.5488469999999999e-04 3.5488465600999999e+00 -3.5488469999999999e-04
0.0000000000000000e+00 3.5488465600999999e+00 0.0000000000000000e+00
0.0000000000000000e+00 5.1474166643999997e+00 0.0000000000000000e+00
ITEM: ATOMS id type xs ys zs fx fy fz
1 1 0.5 0.5 0.5 -6.77085e-10 -3.99082e-10 -1.09684e-07
2 1 2.81782e-15 2.81782e-11 0 6.77082e-10 -7.19579e-10 1.09684e-07
3 5 0.5 0 0.300666 1.25526e-10 1.03757e-09 -0.0376156
4 5 1.40905e-11 0.5 0.199334 -1.25613e-10 1.36235e-10 0.0376156
5 5 1.40905e-11 0.5 0.699334 4.81946e-10 -3.65111e-10 0.0376157
6 5 0.5 0 0.800666 -4.81856e-10 3.09972e-10 -0.0376157
