ITEM: TIMESTEP
0
ITEM: NUMBER OF ATOMS
6
ITEM: BOX BOUNDS xy xz yz pp pp pp
0.0000000000000000e+00 3.5488465600999999e+00 0.0000000000000000e+00
0.0000000000000000e+00 3.5665907929000000e+00 0.0000000000000000e+00
0.0000000000000000e+00 5.1732830798000000e+00 0.0000000000000000e+00
ITEM: ATOMS id type xs ys zs fx fy fz
1 1 0.5 0.5 0.5 -4.98113e-10 -3.429e-10 -0.106923
2 1 0 2.8038e-11 0 4.98116e-10 -6.72289e-10 0.106923
3 5 0.5 0 0.300666 -2.02723e-10 9.90107e-10 0.0666961
4 5 0 0.5 0.199334 2.02725e-10 9.23516e-11 -0.0666961
5 5 0 0.5 0.699334 9.12655e-10 -3.70662e-10 0.0265207
6 5 0.5 0 0.800666 -9.12658e-10 3.03394e-10 -0.0265207
ITEM: TIMESTEP
20
ITEM: NUMBER OF ATOMS
6
ITEM: BOX BOUNDS xy xz yz pp pp pp
0.0000000000000000e+00 3.5488465600999999e+00 0.0000000000000000e+00
0.0000000000000000e+00 3.5665907929000000e+00 0.0000000000000000e+00
0.0000000000000000e+00 5.1732830798000000e+00 0.0000000000000000e+00
ITEM: ATOMS id type xs ys zs fx fy fz
1 1 0.5 0.5 0.49962 -3.10896e-12 1.06617e-12 -1.81612e-11
2 1 7.01819e-12 1.22309e-11 0.000379668 3.10257e-12 1.37056e-12 1.81656e-11
3 5 0.5 1.21605e-11 0.301673 6.11455e-13 -5.03842e-12 -1.80513e-11
4 5 7.05006e-12 0.5 0.198327 -6.10609e-13 -5.69988e-12 1.8032e-11
5 5 6.99063e-12 0.5 0.698868 6.26865e-12 4.17044e-12 -3.36817e-11
6 5 0.5 1.06516e-11 0.801132 -6.26538e-12 4.12955e-12 3.36979e-11
