ITEM: TIMESTEP
0
ITEM: NUMBER OF ATOMS
6
ITEM: BOX BOUNDS xy xz yz pp pp pp
0.0000000000000000e+00 3.5488465600999999e+00 0.0000000000000000e+00
-5.1732830000000005e-04 3.5665907929000000e+00 0.0000000000000000e+00
0.0000000000000000e+00 5.1732830798000000e+00 -5.1732830000000005e-04
ITEM: ATOMS id type xs ys zs fx fy fz
1 1 0.5 0.5 0.5 -4.98115e-10 0.00124809 -0.106923
2 1 0 2.8038e-11 0 4.98115e-10 -0.00124809 0.106923
3 5 0.5 8.59383e-12 0.300666 -2.0272e-10 -0.000973115 0.0666956
4 5 0 0.5 0.199334 2.02725e-10 0.000973115 -0.0666956
5 5 0 0.5 0.699334 9.12651e-10 -0.000339739 0.0265206
6 5 0.5 1 0.800666 -9.12655e-10 0.000339739 -0.0265206
