ITEM: TIMESTEP
0
ITEM: NUMBER OF ATOMS
6
ITEM: BOX BOUNDS xy xz yz pp pp pp
0.0000000000000000e+00 3.5133580945000000e+00 0.0000000000000000e+00
0.0000000000000000e+00 3.5488465600999999e+00 0.0000000000000000e+00
0.0000000000000000e+00 5.1727657515000001e+00 0.0000000000000000e+00
ITEM: ATOMS id type xs ys zs fx fy fz
1 1 0.5 0.5 0.5 -5.80827e-10 -3.94373e-10 -0.226844
2 1 1 2.81782e-11 0 5.80851e-10 -6.95016e-10 0.226844
3 5 0.5 0 0.300666 -2.25408e-10 1.0384e-09 0.056587
4 5 1 0.5 0.199334 2.25406e-10 1.1929e-10 -0.056587
5 5 0 0.5 0.699334 9.93352e-10 -3.70698e-10 0.151154
6 5 0.5 0 0.800666 -9.93371e-10 3.02395e-10 -0.151154
