ITEM: TIMESTEP
0
ITEM: NUMBER OF ATOMS
6
ITEM: BOX BOUNDS xy xz yz pp pp pp
0.0000000000000000e+00 3.5137129792000001e+00 3.5488469999999999e-04
0.0000000000000000e+00 3.5488465600999999e+00 0.0000000000000000e+00
0.0000000000000000e+00 5.1732830798000000e+00 0.0000000000000000e+00
ITEM: ATOMS id type xs ys zs fx fy fz
1 1 0.5 0.5 0.5 -4.28568e-10 -3.94108e-10 -0.226815
2 1 1 2.81782e-11 0 4.28596e-10 -6.94726e-10 0.226815
3 5 0.5 0 0.300666 -5.65386e-10 1.03824e-09 0.0572899
4 5 1 0.5 0.199334 5.65462e-10 1.18934e-10 -0.0572899
5 5 1 0.5 0.699334 1.44299e-09 -3.70939e-10 0.150321
6 5 0.5 0 0.800666 -1.4431e-09 3.02595e-10 -0.150321
