ITEM: TIMESTEP
0
ITEM: NUMBER OF ATOMS
6
ITEM: BOX BOUNDS xy xz yz pp pp pp
0.0000000000000000e+00 3.5843350257000002e+00 0.0000000000000000e+00
0.0000000000000000e+00 3.5484916754000002e+00 0.0000000000000000e+00
0.0000000000000000e+00 5.1732830798000000e+00 0.0000000000000000e+00
ITEM: ATOMS id type xs ys zs fx fy fz
1 1 0.5 0.5 0.5 -4.25319e-10 -8.72051e-10 0.211873
2 1 0 2.8181e-11 0 4.25321e-10 -2.19034e-10 -0.211873
3 5 0.5 0 0.300666 -1.90259e-10 1.91515e-09 -0.0530048
4 5 0 0.5 0.199334 1.90259e-10 -7.76062e-10 0.0530048
5 5 0 0.5 0.699334 8.50567e-10 -5.60033e-10 -0.128567
6 5 0.5 0 0.800666 -8.50569e-10 5.12029e-10 0.128567
