ITEM: TIMESTEP
0
ITEM: NUMBER OF ATOMS
6
ITEM: BOX BOUNDS xy xz yz pp pp pp
-3.5488465599999998e-02 3.5488465600999999e+00 -3.5488465599999998e-02
0.0000000000000000e+00 3.5488465600999999e+00 0.0000000000000000e+00
0.0000000000000000e+00 5.1727657515000001e+00 0.0000000000000000e+00
ITEM: ATOMS id type xs ys zs fx fy fz
1 1 0.5 0.5 0.5 -4.9276e-10 -3.8836e-10 -0.0010901
2 1 2.81782e-13 2.81782e-11 0 4.92183e-10 -7.01801e-10 0.0010901
3 5 0.5 0 0.300666 -2.05472e-10 1.0145e-09 -0.000181887
4 5 1.40891e-13 0.5 0.199334 1.97526e-10 1.331e-10 0.000181885
5 5 1.40891e-13 0.5 0.699334 9.16118e-10 -3.55326e-10 0.00114872
6 5 0.5 0 0.800666 -9.07596e-10 2.97884e-10 -0.00114872
