ITEM: TIMESTEP
0
ITEM: NUMBER OF ATOMS
6
ITEM: BOX BOUNDS xy xz yz pp pp pp
0.0000000000000000e+00 3.5488465600999999e+00 0.0000000000000000e+00
0.0000000000000000e+00 3.5665907929000000e+00 0.0000000000000000e+00
0.0000000000000000e+00 5.1727657515000001e+00 0.0000000000000000e+00
ITEM: ATOMS id type xs ys zs fx fy fz
1 1 0.5 0.5 0.5 -4.98432e-10 -3.43176e-10 -0.106934
2 1 0 2.8038e-11 0 4.98428e-10 -6.72563e-10 0.106934
3 5 0.5 0 0.300666 -2.02799e-10 9.90392e-10 0.0659869
4 5 0 0.5 0.199334 2.02799e-10 9.25652e-11 -0.0659869
5 5 0 0.5 0.699334 9.12913e-10 -3.70636e-10 0.0272934
6 5 0.5 0 0.800666 -9.12911e-10 3.03417e-10 -0.0272934
