ITEM: TIMESTEP
0
ITEM: NUMBER OF ATOMS
6
ITEM: BOX BOUNDS xy xz yz pp pp pp
0.0000000000000000e+00 3.5488465600999999e+00 0.0000000000000000e+00
-2.5349087100000001e-02 3.5488465600999999e+00 0.0000000000000000e+00
0.0000000000000000e+00 5.1732830798000000e+00 -2.5349087100000001e-02
ITEM: ATOMS id type xs ys zs fx fy fz
1 1 0.5 0.5 0.5 -5.01251e-10 0.0633668 0.000441636
2 1 0 2.81782e-11 0 5.01251e-10 -0.0633668 -0.000441636
3 5 0.5 1 0.300666 -2.0808e-10 -0.0515112 -0.00124331
4 5 0 0.5 0.199334 2.08087e-10 0.0515112 0.00124331
5 5 0 0.5 0.699334 9.19644e-10 -0.0184773 -0.000238944
6 5 0.5 1 0.800666 -9.19653e-10 0.0184773 0.000238944
