ITEM: TIMESTEP
0
ITEM: NUMBER OF ATOMS
6
ITEM: BOX BOUNDS xy xz yz pp pp pp
0.0000000000000000e+00 3.5843350256999997e+00 3.5488465599999998e-02
0.0000000000000000e+00 3.5488465600999999e+00 0.0000000000000000e+00
0.0000000000000000e+00 5.1727657515000001e+00 0.0000000000000000e+00
ITEM: ATOMS id type xs ys zs fx fy fz
1 1 0.5 0.5 0.5 -5.10139e-10 -3.80975e-10 -0.0010901
2 1 1 2.81782e-11 0 5.10717e-10 -7.09186e-10 0.0010901
3 5 0.5 0 0.300666 -2.11196e-10 1.03205e-09 -0.000181887
4 5 1 0.5 0.199334 2.19147e-10 1.15557e-10 0.000181885
5 5 1 0.5 0.699334 9.23922e-10 -3.78358e-10 0.00114872
6 5 0.5 0 0.800666 -9.32446e-10 3.20913e-10 -0.00114872
