ITEM: TIMESTEP
0
ITEM: NUMBER OF ATOMS
6
ITEM: BOX BOUNDS xy xz yz pp pp pp
0.0000000000000000e+00 3.5669474520000000e+00 1.7746007200000000e-02
0.0000000000000000e+00 3.5488465600999999e+00 0.0000000000000000e+00
0.0000000000000000e+00 5.1732830798000000e+00 0.0000000000000000e+00
ITEM: ATOMS id type xs ys zs fx fy fz
1 1 0.5 0.5 0.5 -4.33231e-12 -3.84549e-10 0.00190726
2 1 1 2.81782e-11 0 4.64484e-12 -7.05527e-10 -0.00190726
3 5 0.5 0 0.300666 -1.4079e-12 1.02285e-09 -0.000399409
4 5 1 0.5 0.199334 5.3843e-12 1.24645e-10 0.000399409
5 5 1 0.5 0.699334 1.9118e-12 -3.66517e-10 -0.001291
6 5 0.5 0 0.800666 -6.19847e-12 3.09095e-10 0.001291
