LAMMPS data file via write_data, version 2 Aug 2023, timestep = 0, units = metal

6 atoms
5 atom types

0 3.5843350257 xlo xhi
0 3.5488465601 ylo yhi
0 5.1727657515 zlo zhi
0 0 0 xy xz yz

Masses

1 178.49
2 91.224
3 88.90600000000001
4 26.982
5 15.999

Atoms # atomic

1 1 1.7921675129 1.7744232801 2.5863828757 0 0 0
2 1 0 1e-10 0 0 0 0
3 5 1.7921675129 0 1.5552747875 0 0 0
4 5 0 1.7744232801 1.0311080883 0 0 0
5 5 0 1.7744232801 3.617490964 0 0 0
6 5 1.7921675129 0 4.1416576632 0 0 0

Velocities

1 0 0 0
2 0 0 0
3 0 0 0
4 0 0 0
5 0 0 0
6 0 0 0
