ITEM: TIMESTEP
0
ITEM: NUMBER OF ATOMS
6
ITEM: BOX BOUNDS xy xz yz pp pp pp
0.0000000000000000e+00 3.5843350257000002e+00 0.0000000000000000e+00
0.0000000000000000e+00 3.5488465600999999e+00 0.0000000000000000e+00
0.0000000000000000e+00 5.1727657515000001e+00 0.0000000000000000e+00
ITEM: ATOMS id type xs ys zs fx fy fz
1 1 0.5 0.5 0.5 -4.25555e-10 -3.75778e-10 0.209712
2 1 0 2.81782e-11 0 4.25554e-10 -7.14353e-10 -0.209712
3 5 0.5 0 0.300666 -1.90237e-10 1.00836e-09 -0.0523956
4 5 0 0.5 0.199334 1.90236e-10 1.29919e-10 0.0523956
5 5 0 0.5 0.699334 8.50669e-10 -3.62446e-10 -0.127367
6 5 0.5 0 0.800666 -8.50669e-10 3.14301e-10 0.127367
