ITEM: TIMESTEP
0
ITEM: NUMBER OF ATOMS
6
ITEM: BOX BOUNDS xy xz yz pp pp pp
0.0000000000000000e+00 3.5843350257000002e+00 0.0000000000000000e+00
0.0000000000000000e+00 3.5492014448000000e+00 0.0000000000000000e+00
0.0000000000000000e+00 5.1732830798000000e+00 0.0000000000000000e+00
ITEM: ATOMS id type xs ys zs fx fy fz
1 1 0.5 0.5 0.5 -4.25181e-10 1.19508e-10 0.20751
2 1 0 2.81754e-11 0 4.25179e-10 -1.20752e-09 -0.20751
3 5 0.5 0 0.300666 -1.90053e-10 1.02356e-10 -0.0502023
4 5 0 0.5 0.199334 1.90056e-10 1.03405e-09 0.0502023
5 5 0 0.5 0.699334 8.5029e-10 -1.65243e-10 -0.127503
6 5 0.5 0 0.800666 -8.50288e-10 1.16846e-10 0.127503
