ITEM: TIMESTEP
0
ITEM: NUMBER OF ATOMS
6
ITEM: BOX BOUNDS xy xz yz pp pp pp
-5.2250159999999996e-04 3.5488465600999999e+00 0.0000000000000000e+00
0.0000000000000000e+00 3.5488465600999999e+00 -5.2250159999999996e-04
0.0000000000000000e+00 5.2250159105999998e+00 0.0000000000000000e+00
ITEM: ATOMS id type xs ys zs fx fy fz
1 1 0.5 0.5 0.5 -0.00125728 -3.56905e-10 -1.6977e-07
2 1 0 2.81782e-11 0 0.00125728 -6.76799e-10 1.6977e-07
3 5 0.5 0 0.300666 0.000346902 9.94348e-10 0.0746733
4 5 9.56143e-12 0.5 0.199334 -0.000346902 1.01964e-10 -0.0746733
5 5 9.56143e-12 0.5 0.699334 0.000968875 -3.69646e-10 -0.0746727
6 5 0.5 0 0.800666 -0.000968875 3.07038e-10 0.0746727
