
6 atoms
5 atom types

0.0000000000 3.5488465601 xlo xhi
0.0000000000 3.5488465601 ylo yhi
0.0000000000 5.1732830798 zlo zhi
0.0000000000 -0.0512155025 0.0000000000 xy xz yz

Masses

1 178.4900
2 91.2240
3 88.9060
4 26.9820
5 15.9990

Atoms # atomic

1 1 1.7488155289 1.7744232801 2.5866415399
2 1 0.0000000000 0.0000000001 0.0000000000
3 5 1.7590245198 0.0000000000 1.5554303305
4 5 3.5386375691 1.7744232801 1.0312112094
5 5 3.5130298179 1.7744232801 3.6178527493
6 5 1.7334167686 0.0000000000 4.1420718704

