ITEM: TIMESTEP
0
ITEM: NUMBER OF ATOMS
6
ITEM: BOX BOUNDS xy xz yz pp pp pp
0.0000000000000000e+00 3.5488465600999999e+00 0.0000000000000000e+00
0.0000000000000000e+00 3.5488465600999999e+00 0.0000000000000000e+00
0.0000000000000000e+00 5.1991494952000004e+00 0.0000000000000000e+00
ITEM: ATOMS id type xs ys zs fx fy fz
1 1 0.5 0.5 0.5 -4.85568e-10 -3.70688e-10 -1.25941e-15
2 1 0 2.81782e-11 0 4.85571e-10 -6.91228e-10 -2.77556e-15
3 5 0.5 0 0.300666 -2.04114e-10 1.00862e-09 0.0374344
4 5 0 0.5 0.199334 2.04112e-10 1.13334e-10 -0.0374344
5 5 0 0.5 0.699334 9.06802e-10 -3.67992e-10 -0.0374344
6 5 0.5 0 0.800666 -9.06805e-10 3.07952e-10 0.0374344
ITEM: TIMESTEP
7
ITEM: NUMBER OF ATOMS
6
ITEM: BOX BOUNDS xy xz yz pp pp pp
0.0000000000000000e+00 3.5488465600999999e+00 0.0000000000000000e+00
0.0000000000000000e+00 3.5488465600999999e+00 0.0000000000000000e+00
0.0000000000000000e+00 5.1991494952000004e+00 0.0000000000000000e+00
ITEM: ATOMS id type xs ys zs fx fy fz
1 1 0.5 0.5 0.5 -5.30687e-14 -4.31025e-12 1.13466e-11
2 1 7.04325e-12 1.28162e-11 4.40982e-14 4.4964e-14 -4.36552e-12 -1.13378e-11
3 5 0.5 1.25357e-11 0.301948 6.90004e-14 -3.19596e-12 -3.55843e-12
4 5 7.04608e-12 0.5 0.198052 -7.06102e-14 -3.23581e-12 3.57131e-12
5 5 7.0453e-12 0.5 0.698052 -3.20508e-14 7.76885e-12 -3.56271e-12
6 5 0.5 9.87791e-12 0.801948 4.17166e-14 7.33787e-12 3.54506e-12
