ITEM: TIMESTEP
0
ITEM: NUMBER OF ATOMS
6
ITEM: BOX BOUNDS xy xz yz pp pp pp
-1.8099117500000001e-02 3.5488465600999999e+00 -1.8099117500000001e-02
0.0000000000000000e+00 3.5488465600999999e+00 0.0000000000000000e+00
0.0000000000000000e+00 5.1732830798000000e+00 0.0000000000000000e+00
ITEM: ATOMS id type xs ys zs fx fy fz
1 1 0.5 0.5 0.5 -6.5719e-10 -3.89364e-10 -0.000283589
2 1 1.43709e-13 2.81782e-11 0 6.56898e-10 -7.00702e-10 0.000283589
3 5 0.5 0 0.300666 1.31094e-10 1.01972e-09 0.000151102
4 5 1.41609e-11 0.5 0.199334 -1.35153e-10 1.27864e-10 -0.000151102
5 5 1.41609e-11 0.5 0.699334 4.68559e-10 -3.65408e-10 0.000100327
6 5 0.5 0 0.800666 -4.6421e-10 3.07887e-10 -0.000100327
