ITEM: TIMESTEP
0
ITEM: NUMBER OF ATOMS
6
ITEM: BOX BOUNDS xy xz yz pp pp pp
0.0000000000000000e+00 3.5492014448000000e+00 0.0000000000000000e+00
0.0000000000000000e+00 3.5843350257000002e+00 0.0000000000000000e+00
0.0000000000000000e+00 5.1732830798000000e+00 0.0000000000000000e+00
ITEM: ATOMS id type xs ys zs fx fy fz
1 1 0.5 0.5 0.5 7.10543e-15 -3.01995e-10 -0.20751
2 1 0 2.78992e-11 0 -6.82787e-15 -6.40199e-10 0.20751
3 5 0.5 0 0.300666 4.66294e-15 9.57705e-10 0.127503
4 5 0 0.5 0.199334 -6.07847e-15 6.14943e-11 -0.127503
5 5 0 0.5 0.699334 -1.78468e-14 -3.7466e-10 0.0502023
6 5 0.5 0 0.800666 1.72917e-14 2.97654e-10 -0.0502023
