ITEM: TIMESTEP
0
ITEM: NUMBER OF ATOMS
6
ITEM: BOX BOUNDS xy xz yz pp pp pp
0.0000000000000000e+00 3.5488465600999999e+00 0.0000000000000000e+00
-2.5869001999999999e-02 3.5492014448000000e+00 0.0000000000000000e+00
0.0000000000000000e+00 5.1732830798000000e+00 -2.5869001999999999e-02
ITEM: ATOMS id type xs ys zs fx fy fz
1 1 0.5 0.5 0.5 -5.01185e-10 0.0646213 -0.00172087
2 1 0 2.81754e-11 0 5.01187e-10 -0.0646213 0.00172087
3 5 0.5 1 0.300666 -2.07977e-10 -0.0524892 9.29767e-05
4 5 0 0.5 0.199334 2.07973e-10 0.0524892 -9.29767e-05
5 5 0 0.5 0.699334 9.19511e-10 -0.0188181 0.00029633
6 5 0.5 1 0.800666 -9.19508e-10 0.0188181 -0.00029633
