ITEM: TIMESTEP
0
ITEM: NUMBER OF ATOMS
6
ITEM: BOX BOUNDS xy xz yz pp pp pp
0.0000000000000000e+00 3.5843350257000002e+00 0.0000000000000000e+00
0.0000000000000000e+00 3.5488465600999999e+00 0.0000000000000000e+00
0.0000000000000000e+00 5.1738004081000000e+00 0.0000000000000000e+00
ITEM: ATOMS id type xs ys zs fx fy fz
1 1 0.5 0.5 0.5 -4.24951e-10 -3.75219e-10 0.209668
2 1 0 2.81782e-11 0 4.24954e-10 -7.13759e-10 -0.209668
3 5 0.5 0 0.300666 -1.90074e-10 1.00777e-09 -0.0508094
4 5 0 0.5 0.199334 1.90074e-10 1.29464e-10 0.0508094
5 5 0 0.5 0.699334 8.50199e-10 -3.62507e-10 -0.128702
6 5 0.5 0 0.800666 -8.50199e-10 3.14249e-10 0.128702
