ITEM: TIMESTEP
0
ITEM: NUMBER OF ATOMS
6
ITEM: BOX BOUNDS xy xz yz pp pp pp
0.0000000000000000e+00 3.5665907929000000e+00 0.0000000000000000e+00
0.0000000000000000e+00 3.5492014448000000e+00 0.0000000000000000e+00
0.0000000000000000e+00 5.1732830798000000e+00 0.0000000000000000e+00
ITEM: ATOMS id type xs ys zs fx fy fz
1 1 0.5 0.5 0.5 -4.62831e-10 1.181e-10 0.104743
2 1 0 2.81754e-11 0 4.62834e-10 -1.20673e-09 -0.104743
3 5 0.5 0 0.300666 -1.9924e-10 1.02925e-10 -0.0251265
4 5 0 0.5 0.199334 1.99241e-10 1.0386e-09 0.0251265
5 5 0 0.5 0.699334 8.84627e-10 -1.61998e-10 -0.0661582
6 5 0.5 0 0.800666 -8.84627e-10 1.09103e-10 0.0661582
