
6 atoms
5 atom types

0.0000000000 3.5488465601 xlo xhi
0.0000000000 3.5488465601 ylo yhi
0.0000000000 5.1727657515 zlo zhi
0.0000000000 0.0000000000 0.0517328308 xy xz yz

Masses

1 178.4900
2 91.2240
3 88.9060
4 26.9820
5 15.9990

Atoms # atomic

1 1 1.7744232801 1.8002896955 2.5863828757
2 1 0.0000000000 0.0000000001 0.0000000000
3 5 1.7744232801 3.5644008634 1.5552747875
4 5 0.0000000000 1.7847353922 1.0311080883
5 5 0.0000000000 1.8106018076 3.6174909640
6 5 1.7744232801 3.5902672788 4.1416576632

