ITEM: TIMESTEP
0
ITEM: NUMBER OF ATOMS
6
ITEM: BOX BOUNDS xy xz yz pp pp pp
0.0000000000000000e+00 3.5492014448000000e+00 0.0000000000000000e+00
-5.1732830799999997e-02 3.5488465600999999e+00 0.0000000000000000e+00
0.0000000000000000e+00 5.1732830798000000e+00 -5.1732830799999997e-02
ITEM: ATOMS id type xs ys zs fx fy fz
1 1 0.5 0.5 0.5 9.10383e-15 0.129398 0.00402087
2 1 0 2.81782e-11 0 -8.60423e-15 -0.129398 -0.00402087
3 5 0.5 1.57835e-12 0.300666 2.9976e-15 -0.105164 -0.00573233
4 5 0 0.5 0.199334 -4.57967e-15 0.105164 0.00573233
5 5 0 0.5 0.699334 -1.01932e-14 -0.0376379 -0.00236441
6 5 0.5 1.57835e-12 0.800666 1.14908e-14 0.0376379 0.00236441
