ITEM: TIMESTEP
0
ITEM: NUMBER OF ATOMS
6
ITEM: BOX BOUNDS xy xz yz pp pp pp
0.0000000000000000e+00 3.5488465600999999e+00 0.0000000000000000e+00
0.0000000000000000e+00 3.5133580945000000e+00 0.0000000000000000e+00
0.0000000000000000e+00 5.1738004081000000e+00 0.0000000000000000e+00
ITEM: ATOMS id type xs ys zs fx fy fz
1 1 0.5 0.5 0.5 -5.07377e-10 -4.71116e-10 0.226787
2 1 0 2.84628e-11 0 5.07379e-10 -7.75162e-10 -0.226787
3 5 0.5 0 0.300666 -2.19214e-10 1.09237e-09 -0.149488
4 5 0 0.5 0.199334 2.19217e-10 1.92674e-10 0.149488
5 5 0 0.5 0.699334 9.33882e-10 -3.59412e-10 -0.0579927
6 5 0.5 1 0.800666 -9.33887e-10 3.20642e-10 0.0579927
