ITEM: TIMESTEP
0
ITEM: NUMBER OF ATOMS
6
ITEM: BOX BOUNDS xy xz yz pp pp pp
0.0000000000000000e+00 3.5669474520000000e+00 0.0000000000000000e+00
0.0000000000000000e+00 3.5488465600999999e+00 0.0000000000000000e+00
0.0000000000000000e+00 5.1732830798000000e+00 0.0000000000000000e+00
ITEM: ATOMS id type xs ys zs fx fy fz
1 1 0.5 0.5 0.5 -2.22045e-16 -3.80006e-10 0.109029
2 1 0 2.81782e-11 0 -1.66533e-16 -7.10161e-10 -0.109029
3 5 0.5 0 0.300666 1.69309e-15 1.01541e-09 -0.0270389
4 5 0 0.5 0.199334 -6.10623e-16 1.27359e-10 0.0270389
5 5 0 0.5 0.699334 -7.63278e-16 -3.64431e-10 -0.0679812
6 5 0.5 0 0.800666 2.77556e-16 3.11824e-10 0.0679812
