ITEM: TIMESTEP
0
ITEM: NUMBER OF ATOMS
6
ITEM: BOX BOUNDS xy xz yz pp pp pp
0.0000000000000000e+00 3.5488465600999999e+00 0.0000000000000000e+00
0.0000000000000000e+00 3.5484916754000002e+00 0.0000000000000000e+00
0.0000000000000000e+00 5.1474166643999997e+00 0.0000000000000000e+00
ITEM: ATOMS id type xs ys zs fx fy fz
1 1 0.5 0.5 0.5 -5.16892e-10 -9.17448e-10 0.00219456
2 1 0 2.8181e-11 0 5.16888e-10 -2.02749e-10 -0.00219456
3 5 0.5 0 0.300666 -2.12176e-10 1.97173e-09 -0.039046
4 5 0 0.5 0.199334 2.12176e-10 -7.9658e-10 0.039046
5 5 0 0.5 0.699334 9.32856e-10 -5.77294e-10 0.0370472
6 5 0.5 0 0.800666 -9.32849e-10 5.22336e-10 -0.0370472
