ITEM: TIMESTEP
0
ITEM: NUMBER OF ATOMS
6
ITEM: BOX BOUNDS xy xz yz pp pp pp
-1.7744232799999999e-02 3.5488465600999999e+00 -1.7744232799999999e-02
0.0000000000000000e+00 3.5488465600999999e+00 0.0000000000000000e+00
0.0000000000000000e+00 5.1727657515000001e+00 0.0000000000000000e+00
ITEM: ATOMS id type xs ys zs fx fy fz
1 1 0.5 0.5 0.5 -4.97214e-10 -3.86774e-10 -0.000272608
2 1 1.40891e-13 2.81782e-11 0 4.96936e-10 -7.0386e-10 0.000272608
3 5 0.5 0 0.300666 -2.06776e-10 1.01892e-09 -0.00060499
4 5 7.04454e-14 0.5 0.199334 2.02794e-10 1.29189e-10 0.000604988
5 5 7.04454e-14 0.5 0.699334 9.17993e-10 -3.60784e-10 0.000846817
6 5 0.5 0 0.800666 -9.13734e-10 3.03309e-10 -0.000846816
