ITEM: TIMESTEP
0
ITEM: NUMBER OF ATOMS
6
ITEM: BOX BOUNDS xy xz yz pp pp pp
0.0000000000000000e+00 3.6009342755999998e+00 3.5488469999999999e-04
0.0000000000000000e+00 3.5488465600999999e+00 5.1732830799999997e-02
0.0000000000000000e+00 5.1732830798000000e+00 0.0000000000000000e+00
ITEM: ATOMS id type xs ys zs fx fy fz
1 1 0.5 0.5 0.5 0.129416 -1.15395e-05 -0.00184084
2 1 1 2.81782e-11 0 -0.129416 1.15384e-05 0.00184084
3 5 0.5 0 0.300666 -0.0376654 1.75572e-05 0.000978324
4 5 1 0.5 0.199334 0.0376654 -1.7556e-05 -0.000978324
5 5 1 0.5 0.699334 -0.105159 8.91868e-06 0.00518791
6 5 0.5 0 0.800666 0.105159 -8.91874e-06 -0.00518791
