ITEM: TIMESTEP
0
ITEM: NUMBER OF ATOMS
6
ITEM: BOX BOUNDS xy xz yz pp pp pp
0.0000000000000000e+00 3.5484916754000002e+00 0.0000000000000000e+00
0.0000000000000000e+00 3.5488465600999999e+00 0.0000000000000000e+00
0.0000000000000000e+00 5.1474166643999997e+00 0.0000000000000000e+00
ITEM: ATOMS id type xs ys zs fx fy fz
1 1 0.5 0.5 0.5 -1.03521e-09 -3.99081e-10 -0.00219456
2 1 0 2.81782e-11 0 1.03521e-09 -7.19566e-10 0.00219456
3 5 0.5 0 0.300666 -4.24472e-10 1.03777e-09 -0.0370472
4 5 0 0.5 0.199334 4.24472e-10 1.36122e-10 0.0370472
5 5 0 0.5 0.699334 1.86685e-09 -3.65179e-10 0.039046
6 5 0.5 0 0.800666 -1.86685e-09 3.09931e-10 -0.039046
