ITEM: TIMESTEP
0
ITEM: NUMBER OF ATOMS
6
ITEM: BOX BOUNDS xy xz yz pp pp pp
0.0000000000000000e+00 3.5491996702999997e+00 3.5311020000000003e-04
0.0000000000000000e+00 3.5311023273000002e+00 0.0000000000000000e+00
0.0000000000000000e+00 5.1732830798000000e+00 0.0000000000000000e+00
ITEM: ATOMS id type xs ys zs fx fy fz
1 1 0.5 0.5 0.5 -5.04575e-10 -4.27543e-10 0.111204
2 1 1 2.83198e-11 0 5.04537e-10 -7.39909e-10 -0.111204
3 5 0.5 0 0.300666 -2.13619e-10 1.05725e-09 -0.0722492
4 5 1 0.5 0.199334 2.13702e-10 1.58199e-10 0.0722492
5 5 1 0.5 0.699334 9.2686e-10 -3.62775e-10 -0.0279655
6 5 0.5 1 0.800666 -9.26906e-10 3.14779e-10 0.0279655
