ITEM: TIMESTEP
0
ITEM: NUMBER OF ATOMS
6
ITEM: BOX BOUNDS xy xz yz pp pp pp
0.0000000000000000e+00 3.5488465600999999e+00 0.0000000000000000e+00
0.0000000000000000e+00 3.5839765922000000e+00 0.0000000000000000e+00
0.0000000000000000e+00 5.1732830798000000e+00 0.0000000000000000e+00
ITEM: ATOMS id type xs ys zs fx fy fz
1 1 0.5 0.5 0.5 -4.94992e-10 1.231e-10 -0.207655
2 1 0 2.7902e-11 0 4.94992e-10 -1.06675e-09 0.207655
3 5 0.5 0 0.300666 -1.97585e-10 1.07378e-10 0.126847
4 5 0 0.5 0.199334 1.97588e-10 9.13185e-10 -0.126847
5 5 0 0.5 0.699334 9.05864e-10 -1.8427e-10 0.0511101
6 5 0.5 0 0.800666 -9.05863e-10 1.07364e-10 -0.0511101
