ITEM: TIMESTEP
0
ITEM: NUMBER OF ATOMS
6
ITEM: BOX BOUNDS xy xz yz pp pp pp
0.0000000000000000e+00 3.5488465600999999e+00 0.0000000000000000e+00
0.0000000000000000e+00 3.5311023273000002e+00 0.0000000000000000e+00
0.0000000000000000e+00 5.1727657515000001e+00 0.0000000000000000e+00
ITEM: ATOMS id type xs ys zs fx fy fz
1 1 0.5 0.5 0.5 -5.04787e-10 -4.27872e-10 0.111217
2 1 0 2.83198e-11 0 5.04786e-10 -7.40154e-10 -0.111217
3 5 0.5 0 0.300666 -2.13668e-10 1.05747e-09 -0.0730412
4 5 0 0.5 0.199334 2.13667e-10 1.58517e-10 0.0730412
5 5 0 0.5 0.699334 9.27055e-10 -3.62632e-10 -0.0272382
6 5 0.5 1 0.800666 -9.27053e-10 3.14675e-10 0.0272382
