ITEM: TIMESTEP
0
ITEM: NUMBER OF ATOMS
6
ITEM: BOX BOUNDS xy xz yz pp pp pp
0.0000000000000000e+00 3.5843350257000002e+00 0.0000000000000000e+00
0.0000000000000000e+00 3.5493638883999998e+00 0.0000000000000000e+00
0.0000000000000000e+00 5.1732830798000000e+00 5.1732830000000005e-04
ITEM: ATOMS id type xs ys zs fx fy fz
1 1 0.5 0.5 0.5 -4.25258e-10 -0.0012761 0.209691
2 1 0 2.81782e-11 0 4.25255e-10 0.00127609 -0.209691
3 5 0.5 1 0.300666 -1.90156e-10 0.00105397 -0.0516029
4 5 0 0.5 0.199334 1.90157e-10 -0.00105396 0.0516029
5 5 0 0.5 0.699334 8.50437e-10 0.000352106 -0.128035
6 5 0.5 5.45228e-12 0.800666 -8.50434e-10 -0.000352107 0.128035
