ITEM: TIMESTEP
0
ITEM: NUMBER OF ATOMS
6
ITEM: BOX BOUNDS xy xz yz pp pp pp
0.0000000000000000e+00 3.5488465600999999e+00 0.0000000000000000e+00
0.0000000000000000e+00 3.5138754228000000e+00 0.0000000000000000e+00
0.0000000000000000e+00 5.1732830798000000e+00 5.1732830000000005e-04
ITEM: ATOMS id type xs ys zs fx fy fz
1 1 0.5 0.5 0.5 -5.07687e-10 -0.00138877 0.226816
2 1 0 2.84628e-11 0 5.07692e-10 0.00138877 -0.226816
3 5 0.5 1 0.300666 -2.19299e-10 0.00121235 -0.150321
4 5 0 0.5 0.199334 2.19301e-10 -0.00121234 0.150321
5 5 0 0.5 0.699334 9.3414e-10 0.000453689 -0.05729
6 5 0.5 5.50737e-12 0.800666 -9.34145e-10 -0.00045369 0.05729
