ITEM: TIMESTEP
0
ITEM: NUMBER OF ATOMS
6
ITEM: BOX BOUNDS xy xz yz pp pp pp
-2.5866415399999999e-02 3.5488465600999999e+00 0.0000000000000000e+00
0.0000000000000000e+00 3.5493638883999998e+00 -2.5866415399999999e-02
0.0000000000000000e+00 5.1732830798000000e+00 5.1732830000000005e-04
ITEM: ATOMS id type xs ys zs fx fy fz
1 1 0.5 0.5 0.5 -0.0646606 -0.00129292 -0.000459667
2 1 0 2.81782e-11 0 0.0646606 0.00129292 0.000459667
3 5 0.5 1 0.300666 0.0188542 0.00105106 0.000248062
4 5 1.32999e-11 0.5 0.199334 -0.0188542 -0.00105106 -0.000248062
5 5 1.32999e-11 0.5 0.699334 0.0525627 0.000377268 0.00129467
6 5 0.5 5.45228e-12 0.800666 -0.0525627 -0.000377268 -0.00129467
