ITEM: TIMESTEP
0
ITEM: NUMBER OF ATOMS
6
ITEM: BOX BOUNDS xy xz yz pp pp pp
-3.5488469999999999e-04 3.5665907929000000e+00 -3.5488469999999999e-04
0.0000000000000000e+00 3.5488465600999999e+00 0.0000000000000000e+00
0.0000000000000000e+00 5.1732830798000000e+00 0.0000000000000000e+00
ITEM: ATOMS id type xs ys zs fx fy fz
1 1 0.5 0.5 0.5 -6.27505e-10 -3.80194e-10 0.106923
2 1 2.8038e-15 2.81782e-11 0 6.27498e-10 -7.09971e-10 -0.106923
3 5 0.5 0 0.300666 1.37708e-10 1.0155e-09 -0.0265207
4 5 1.40204e-11 0.5 0.199334 -1.37788e-10 1.27365e-10 0.0265207
5 5 1.40204e-11 0.5 0.699334 4.35854e-10 -3.64447e-10 -0.0666961
6 5 0.5 0 0.800666 -4.35769e-10 3.11751e-10 0.0666961
