ITEM: TIMESTEP
0
ITEM: NUMBER OF ATOMS
6
ITEM: BOX BOUNDS xy xz yz pp pp pp
0.0000000000000000e+00 3.6000620625999997e+00 0.0000000000000000e+00
0.0000000000000000e+00 3.5488465600999999e+00 5.1215502500000003e-02
0.0000000000000000e+00 5.1732830798000000e+00 0.0000000000000000e+00
ITEM: ATOMS id type xs ys zs fx fy fz
1 1 0.5 0.5 0.5 0.128119 -3.8483e-10 -0.00180407
2 1 0 2.81782e-11 0 -0.128119 -7.05027e-10 0.00180407
3 5 0.5 0 0.300666 -0.0372899 1.02297e-09 0.000958917
4 5 7.03064e-12 0.5 0.199334 0.0372899 1.24645e-10 -0.000958917
5 5 1 0.5 0.699334 -0.104106 -3.66487e-10 0.0050847
6 5 0.5 0 0.800666 0.104106 3.08735e-10 -0.0050847
