ITEM: TIMESTEP
0
ITEM: NUMBER OF ATOMS
6
ITEM: BOX BOUNDS xy xz yz pp pp pp
0.0000000000000000e+00 3.5665907929000000e+00 0.0000000000000000e+00
0.0000000000000000e+00 3.5488465600999999e+00 0.0000000000000000e+00
0.0000000000000000e+00 5.1732830798000000e+00 0.0000000000000000e+00
ITEM: ATOMS id type xs ys zs fx fy fz
1 1 0.5 0.5 0.5 -4.62902e-10 -3.80101e-10 0.106923
2 1 0 2.81782e-11 0 4.62902e-10 -7.10066e-10 -0.106923
3 5 0.5 0 0.300666 -1.99349e-10 1.01556e-09 -0.0265207
4 5 0 0.5 0.199334 1.99348e-10 1.27308e-10 0.0265207
5 5 0 0.5 0.699334 8.8477e-10 -3.6447e-10 -0.0666961
6 5 0.5 0 0.800666 -8.84772e-10 3.11769e-10 0.0666961
ITEM: TIMESTEP
20
ITEM: NUMBER OF ATOMS
6
ITEM: BOX BOUNDS xy xz yz pp pp pp
0.0000000000000000e+00 3.5665907929000000e+00 0.0000000000000000e+00
0.0000000000000000e+00 3.5488465600999999e+00 0.0000000000000000e+00
0.0000000000000000e+00 5.1732830798000000e+00 0.0000000000000000e+00
ITEM: ATOMS id type xs ys zs fx fy fz
1 1 0.5 0.5 0.50038 -2.50167e-12 1.37664e-12 1.76e-11
2 1 6.98775e-12 1.20552e-11 0.99962 2.5096e-12 4.45185e-12 -1.75814e-11
3 5 0.5 1.20625e-11 0.301132 5.20334e-13 -3.29861e-12 3.27569e-11
4 5 7.01393e-12 0.5 0.198868 -5.19779e-13 -9.51463e-12 -3.27788e-11
5 5 6.96474e-12 0.5 0.698327 5.17036e-12 3.7847e-12 1.78049e-11
6 5 0.5 1.10675e-11 0.801673 -5.17969e-12 3.19819e-12 -1.7799e-11
