ITEM: TIMESTEP
0
ITEM: NUMBER OF ATOMS
6
ITEM: BOX BOUNDS xy xz yz pp pp pp
0.0000000000000000e+00 3.5492014448000000e+00 0.0000000000000000e+00
0.0000000000000000e+00 3.5488465600999999e+00 0.0000000000000000e+00
0.0000000000000000e+00 5.1991494952000004e+00 0.0000000000000000e+00
ITEM: ATOMS id type xs ys zs fx fy fz
1 1 0.5 0.5 0.5 1.31006e-14 -3.70594e-10 0.00216788
2 1 0 2.81782e-11 0 -4.32987e-15 -6.91326e-10 -0.00216788
3 5 0.5 0 0.300666 5.27356e-16 1.00848e-09 0.036912
4 5 0 0.5 0.199334 -5.02376e-15 1.13385e-10 -0.036912
5 5 0 0.5 0.699334 -1.89709e-14 -3.67951e-10 -0.0387798
6 5 0.5 0 0.800666 1.28231e-14 3.08008e-10 0.0387798
