ITEM: TIMESTEP
0
ITEM: NUMBER OF ATOMS
6
ITEM: BOX BOUNDS xy xz yz pp pp pp
0.0000000000000000e+00 3.5488465600999999e+00 0.0000000000000000e+00
0.0000000000000000e+00 3.5747129754999998e+00 0.0000000000000000e+00
0.0000000000000000e+00 5.1727657515000001e+00 2.5866415399999999e-02
ITEM: ATOMS id type xs ys zs fx fy fz
1 1 0.5 0.5 0.5 -5.01557e-10 -0.064686 0.000460313
2 1 0 2.81782e-11 0 5.01563e-10 0.064686 -0.000460312
3 5 0.5 1.32567e-11 0.300666 -2.08163e-10 0.0526088 -0.00204553
4 5 0 0.5 0.199334 2.08164e-10 -0.0526088 0.00204553
5 5 0 0.5 0.699334 9.19911e-10 0.0188714 0.000501933
6 5 0.5 1.33272e-11 0.800666 -9.19916e-10 -0.0188714 -0.000501932
