ITEM: TIMESTEP
0
ITEM: NUMBER OF ATOMS
6
ITEM: BOX BOUNDS xy xz yz pp pp pp
0.0000000000000000e+00 3.5488465600999999e+00 0.0000000000000000e+00
0.0000000000000000e+00 3.5848523540000001e+00 0.0000000000000000e+00
0.0000000000000000e+00 5.1732830798000000e+00 5.1732830000000005e-04
ITEM: ATOMS id type xs ys zs fx fy fz
1 1 0.5 0.5 0.5 -4.94921e-10 -0.00120506 -0.20969
2 1 0 2.78992e-11 0 4.94921e-10 0.00120506 0.20969
3 5 0.5 1 0.300666 -1.97485e-10 0.000894767 0.128034
4 5 0 0.5 0.199334 1.97487e-10 -0.000894765 -0.128034
5 5 0 0.5 0.699334 9.05718e-10 0.000305023 0.0516023
6 5 0.5 5.3983e-12 0.800666 -9.05722e-10 -0.000305023 -0.0516023
