ITEM: TIMESTEP
0
ITEM: NUMBER OF ATOMS
6
ITEM: BOX BOUNDS xy xz yz pp pp pp
-3.5488465599999998e-02 3.5493638883999998e+00 -3.5488465599999998e-02
0.0000000000000000e+00 3.5488465600999999e+00 5.1732830000000005e-04
0.0000000000000000e+00 5.1732830798000000e+00 0.0000000000000000e+00
ITEM: ATOMS id type xs ys zs fx fy fz
1 1 0.5 0.5 0.5 0.00129269 1.15276e-05 -0.00109016
2 1 2.81782e-13 2.81782e-11 0 -0.00129269 -1.15287e-05 0.00109016
3 5 0.5 0 0.300666 -0.000377414 -1.74969e-05 0.000567875
4 5 1 0.5 0.199334 0.000377414 1.7498e-05 -0.000567875
5 5 8.77769e-12 0.5 0.699334 -0.00105072 -8.96173e-06 0.000398937
6 5 0.5 0 0.800666 0.00105072 8.96167e-06 -0.000398937
