ITEM: TIMESTEP
0
ITEM: NUMBER OF ATOMS
6
ITEM: BOX BOUNDS xy xz yz pp pp pp
0.0000000000000000e+00 3.5133580945000000e+00 0.0000000000000000e+00
0.0000000000000000e+00 3.5493638883999998e+00 0.0000000000000000e+00
0.0000000000000000e+00 5.1732830798000000e+00 5.1732830000000005e-04
ITEM: ATOMS id type xs ys zs fx fy fz
1 1 0.5 0.5 0.5 -5.80507e-10 -0.00131099 -0.226815
2 1 1 2.81782e-11 0 5.80525e-10 0.00131099 0.226815
3 5 0.5 1 0.300666 -2.25337e-10 0.00104462 0.0572894
4 5 1 0.5 0.199334 2.25336e-10 -0.00104462 -0.0572894
5 5 0 0.5 0.699334 9.93063e-10 0.000406933 0.150321
6 5 0.5 5.45228e-12 0.800666 -9.93079e-10 -0.000406933 -0.150321
