ITEM: TIMESTEP
0
ITEM: NUMBER OF ATOMS
6
ITEM: BOX BOUNDS xy xz yz pp pp pp
0.0000000000000000e+00 3.5488465600999999e+00 0.0000000000000000e+00
0.0000000000000000e+00 3.5488465600999999e+00 0.0000000000000000e+00
0.0000000000000000e+00 5.1215502490000002e+00 0.0000000000000000e+00
ITEM: ATOMS id type xs ys zs fx fy fz
1 1 0.5 0.5 0.5 -5.32265e-10 -4.13436e-10 -5.57193e-15
2 1 0 2.81782e-11 0 5.32264e-10 -7.33759e-10 1.88738e-15
3 5 0.5 0 0.300666 -2.16178e-10 1.05262e-09 -0.0753513
4 5 0 0.5 0.199334 2.16177e-10 1.47537e-10 0.0753513
5 5 0 0.5 0.699334 9.4613e-10 -3.64144e-10 0.0753513
6 5 0.5 0 0.800666 -9.46124e-10 3.11183e-10 -0.0753513
ITEM: TIMESTEP
10
ITEM: NUMBER OF ATOMS
6
ITEM: BOX BOUNDS xy xz yz pp pp pp
0.0000000000000000e+00 3.5488465600999999e+00 0.0000000000000000e+00
0.0000000000000000e+00 3.5488465600999999e+00 0.0000000000000000e+00
0.0000000000000000e+00 5.1215502490000002e+00 0.0000000000000000e+00
ITEM: ATOMS id type xs ys zs fx fy fz
1 1 0.5 0.5 0.5 -4.39537e-13 -6.4471e-13 -2.17906e-13
2 1 7.0346e-12 1.19652e-11 1 4.29212e-13 3.13086e-12 2.28706e-13
3 5 0.5 1.20579e-11 0.297955 -9.04832e-14 -5.40222e-12 1.20265e-13
4 5 7.04064e-12 0.5 0.202045 8.50708e-14 -4.06433e-12 -1.01308e-13
5 5 7.04459e-12 0.5 0.702045 3.08774e-13 2.57225e-12 3.01981e-14
6 5 0.5 1.11296e-11 0.797955 -2.9371e-13 4.40847e-12 -6.13815e-14
