LAMMPS data file via write_data, version 2 Aug 2023, timestep = 0, units = metal

6 atoms
5 atom types

0 3.5488465601 xlo xhi
0 3.5488465601 ylo yhi
0 5.2250159106 zlo zhi
0 0 0.0005225016 xy xz yz

Masses

1 178.49
2 91.224
3 88.90600000000001
4 26.982
5 15.999

Atoms # atomic

1 1 1.7744232801 1.7746845309 2.6125079553 0 0 0
2 1 0 1e-10 0 0 0 0
3 5 1.7744232801 0.00015709850000000005 1.5709846338 0 0 0
4 5 0 1.7745274324000002 1.0415233215 0 0 0
5 5 0 1.7747886831999997 3.6540312768 0 0 0
6 5 1.7744232801 0.00041834930000000015 4.1834925891 0 0 0

Velocities

1 0 0 0
2 0 0 0
3 0 0 0
4 0 0 0
5 0 0 0
6 0 0 0
