ITEM: TIMESTEP
0
ITEM: NUMBER OF ATOMS
6
ITEM: BOX BOUNDS xy xz yz pp pp pp
0.0000000000000000e+00 3.5488465600999999e+00 0.0000000000000000e+00
0.0000000000000000e+00 3.5311023273000002e+00 0.0000000000000000e+00
0.0000000000000000e+00 5.1738004081000000e+00 0.0000000000000000e+00
ITEM: ATOMS id type xs ys zs fx fy fz
1 1 0.5 0.5 0.5 -5.04159e-10 -4.27277e-10 0.111191
2 1 0 2.83198e-11 0 5.04159e-10 -7.39585e-10 -0.111191
3 5 0.5 0 0.300666 -2.13499e-10 1.05685e-09 -0.0714573
4 5 0 0.5 0.199334 2.135e-10 1.58052e-10 0.0714573
5 5 0 0.5 0.699334 9.26531e-10 -3.62676e-10 -0.0286929
6 5 0.5 1 0.800666 -9.2653e-10 3.14634e-10 0.0286929
