ITEM: TIMESTEP
0
ITEM: NUMBER OF ATOMS
6
ITEM: BOX BOUNDS xy xz yz pp pp pp
0.0000000000000000e+00 3.5488465600999999e+00 0.0000000000000000e+00
0.0000000000000000e+00 3.5488465600999999e+00 0.0000000000000000e+00
0.0000000000000000e+00 5.1210380940000002e+00 0.0000000000000000e+00
ITEM: ATOMS id type xs ys zs fx fy fz
1 1 0.5 0.5 0.5 -5.32571e-10 -4.13725e-10 -7.20951e-15
2 1 0 2.81782e-11 0 5.32573e-10 -7.34044e-10 -2.88658e-15
3 5 0.5 0 0.300666 -2.16264e-10 1.05292e-09 -0.0760988
4 5 0 0.5 0.199334 2.1626e-10 1.47764e-10 0.0760988
5 5 0 0.5 0.699334 9.46398e-10 -3.64125e-10 0.0760988
6 5 0.5 0 0.800666 -9.46398e-10 3.11209e-10 -0.0760988
