ITEM: TIMESTEP
0
ITEM: NUMBER OF ATOMS
6
ITEM: BOX BOUNDS xy xz yz pp pp pp
0.0000000000000000e+00 3.5311023273000002e+00 0.0000000000000000e+00
0.0000000000000000e+00 3.5484916754000002e+00 0.0000000000000000e+00
0.0000000000000000e+00 5.1732830798000000e+00 0.0000000000000000e+00
ITEM: ATOMS id type xs ys zs fx fy fz
1 1 0.5 0.5 0.5 -5.40535e-10 -8.95474e-10 -0.109022
2 1 1 2.8181e-11 0 5.40551e-10 -1.95825e-10 0.109022
3 5 0.5 0 0.300666 -2.16843e-10 1.95868e-09 0.0265836
4 5 1 0.5 0.199334 2.16843e-10 -8.04832e-10 -0.0265836
5 5 0 0.5 0.699334 9.55824e-10 -5.82207e-10 0.0716963
6 5 0.5 0 0.800666 -9.55843e-10 5.19658e-10 -0.0716963
