ITEM: TIMESTEP
0
ITEM: NUMBER OF ATOMS
6
ITEM: BOX BOUNDS xy xz yz pp pp pp
-3.5488469999999999e-04 3.5488491466999998e+00 -3.5488469999999999e-04
-2.5866415399999999e-02 3.5488465600999999e+00 2.5865999999999999e-06
0.0000000000000000e+00 5.1732830798000000e+00 -2.5866415399999999e-02
ITEM: ATOMS id type xs ys zs fx fy fz
1 1 0.5 0.5 0.5 -7.01094e-07 0.0646606 0.000459741
2 1 2.81782e-15 2.81782e-11 0 7.02184e-07 -0.0646606 -0.000459741
3 5 0.5 1 0.300666 7.51306e-07 -0.0525627 -0.00129471
4 5 1.48458e-11 0.5 0.199334 -7.51248e-07 0.0525627 0.00129471
5 5 1.48458e-11 0.5 0.699334 -6.83891e-06 -0.0188542 -0.000248541
6 5 0.5 1 0.800666 6.83776e-06 0.0188542 0.000248541
