ITEM: TIMESTEP
0
ITEM: NUMBER OF ATOMS
6
ITEM: BOX BOUNDS xy xz yz pp pp pp
0.0000000000000000e+00 3.5492049936000001e+00 3.5843350000000002e-04
0.0000000000000000e+00 3.5843350257000002e+00 0.0000000000000000e+00
0.0000000000000000e+00 5.1732830798000000e+00 0.0000000000000000e+00
ITEM: ATOMS id type xs ys zs fx fy fz
1 1 0.5 0.5 0.5 -6.64282e-10 -3.01988e-10 -0.20969
2 1 1 2.78992e-11 0 6.64274e-10 -6.40212e-10 0.20969
3 5 0.5 0 0.300666 1.40856e-10 9.57907e-10 0.128035
4 5 1.40877e-11 0.5 0.199334 -1.40791e-10 6.1398e-11 -0.128035
5 5 1.40877e-11 0.5 0.699334 4.66569e-10 -3.74712e-10 0.0516025
6 5 0.5 0 0.800666 -4.6663e-10 2.97607e-10 -0.0516025
