ITEM: TIMESTEP
0
ITEM: NUMBER OF ATOMS
6
ITEM: BOX BOUNDS xy xz yz pp pp pp
-3.5492014400000001e-02 3.5492014448000000e+00 -3.5492014400000001e-02
0.0000000000000000e+00 3.5488465600999999e+00 0.0000000000000000e+00
0.0000000000000000e+00 5.1732830798000000e+00 0.0000000000000000e+00
ITEM: ATOMS id type xs ys zs fx fy fz
1 1 0.5 0.5 0.5 8.68672e-12 -3.84295e-10 0.00108939
2 1 2.81782e-13 2.81782e-11 0 -9.28313e-12 -7.05313e-10 -0.00108939
3 5 0.5 0 0.300666 2.85819e-12 1.02284e-09 2.28722e-05
4 5 1.40894e-13 0.5 0.199334 -1.08015e-11 1.24164e-10 -2.28722e-05
5 5 1.40894e-13 0.5 0.699334 -3.89824e-12 -3.6683e-10 -0.000988223
6 5 0.5 0 0.800666 1.24365e-11 3.09434e-10 0.000988223
