ITEM: TIMESTEP
0
ITEM: NUMBER OF ATOMS
6
ITEM: BOX BOUNDS xy xz yz pp pp pp
0.0000000000000000e+00 3.5484916754000002e+00 0.0000000000000000e+00
0.0000000000000000e+00 3.5488465600999999e+00 0.0000000000000000e+00
0.0000000000000000e+00 5.1991494952000004e+00 0.0000000000000000e+00
ITEM: ATOMS id type xs ys zs fx fy fz
1 1 0.5 0.5 0.5 -9.72685e-10 -3.70776e-10 -0.00216956
2 1 0 2.81782e-11 0 9.72684e-10 -6.91145e-10 0.00216956
3 5 0.5 0 0.300666 -4.08575e-10 1.00877e-09 0.0379573
4 5 0 0.5 0.199334 4.08573e-10 1.13282e-10 -0.0379573
5 5 0 0.5 0.699334 1.815e-09 -3.68032e-10 -0.0360867
6 5 0.5 0 0.800666 -1.815e-09 3.07898e-10 0.0360867
