ITEM: TIMESTEP
0
ITEM: NUMBER OF ATOMS
6
ITEM: BOX BOUNDS xy xz yz pp pp pp
0.0000000000000000e+00 3.5747129754999998e+00 0.0000000000000000e+00
0.0000000000000000e+00 3.5484916754000002e+00 2.5866415399999999e-02
0.0000000000000000e+00 5.1732830798000000e+00 0.0000000000000000e+00
ITEM: ATOMS id type xs ys zs fx fy fz
1 1 0.5 0.5 0.5 0.0646693 -8.87625e-10 0.00172189
2 1 0 2.8181e-11 0 -0.0646693 -2.04035e-10 -0.00172189
3 5 0.5 0 0.300666 -0.0188679 1.94402e-09 -0.00114076
4 5 1 0.5 0.199334 0.0188679 -7.94966e-10 0.00114076
5 5 1 0.5 0.699334 -0.0525603 -5.74642e-10 0.00074946
6 5 0.5 0 0.800666 0.0525603 5.17245e-10 -0.00074946
