ITEM: TIMESTEP
0
ITEM: NUMBER OF ATOMS
6
ITEM: BOX BOUNDS xy xz yz pp pp pp
0.0000000000000000e+00 3.5488465600999999e+00 0.0000000000000000e+00
0.0000000000000000e+00 3.5133580945000000e+00 0.0000000000000000e+00
0.0000000000000000e+00 5.1732830798000000e+00 0.0000000000000000e+00
ITEM: ATOMS id type xs ys zs fx fy fz
1 1 0.5 0.5 0.5 -5.0769e-10 -4.71415e-10 0.226815
2 1 0 2.84628e-11 0 5.0769e-10 -7.75451e-10 -0.226815
3 5 0.5 0 0.300666 -2.19299e-10 1.09269e-09 -0.150321
4 5 0 0.5 0.199334 2.19298e-10 1.92916e-10 0.150321
5 5 0 0.5 0.699334 9.34142e-10 -3.59391e-10 -0.0572899
6 5 0.5 1 0.800666 -9.34144e-10 3.20655e-10 0.0572899
ITEM: TIMESTEP
15
ITEM: NUMBER OF ATOMS
6
ITEM: BOX BOUNDS xy xz yz pp pp pp
0.0000000000000000e+00 3.5488465600999999e+00 0.0000000000000000e+00
0.0000000000000000e+00 3.5133580945000000e+00 0.0000000000000000e+00
0.0000000000000000e+00 5.1732830798000000e+00 0.0000000000000000e+00
ITEM: ATOMS id type xs ys zs fx fy fz
1 1 0.5 0.5 0.500715 1.66755e-13 -1.14669e-11 -1.65672e-12
2 1 7.04486e-12 1.23729e-11 0.999285 -1.61482e-13 -1.59522e-11 1.64635e-12
3 5 0.5 1.20184e-11 0.298577 -3.7137e-13 7.27487e-12 2.67919e-12
4 5 7.03646e-12 0.5 0.201423 3.69177e-13 1.44722e-11 -2.65116e-12
5 5 7.04698e-12 0.5 0.700194 -2.80092e-13 1.98341e-12 1.66911e-12
6 5 0.5 1.12231e-11 0.799806 2.76501e-13 3.69282e-12 -1.68687e-12
