ITEM: TIMESTEP
0
ITEM: NUMBER OF ATOMS
6
ITEM: BOX BOUNDS xy xz yz pp pp pp
0.0000000000000000e+00 3.5488465600999999e+00 0.0000000000000000e+00
0.0000000000000000e+00 3.5662341338000001e+00 0.0000000000000000e+00
0.0000000000000000e+00 5.1732830798000000e+00 0.0000000000000000e+00
ITEM: ATOMS id type xs ys zs fx fy fz
1 1 0.5 0.5 0.5 -4.98181e-10 -8.07385e-10 -0.104815
2 1 0 2.80408e-11 0 4.98182e-10 -2.09282e-10 0.104815
3 5 0.5 0 0.300666 -2.02829e-10 1.87623e-09 0.0654088
4 5 0 0.5 0.199334 2.02833e-10 -7.92489e-10 -0.0654088
5 5 0 0.5 0.699334 9.12797e-10 -5.70123e-10 0.026002
6 5 0.5 0 0.800666 -9.12798e-10 5.03049e-10 -0.026002
