ITEM: TIMESTEP
0
ITEM: NUMBER OF ATOMS
6
ITEM: BOX BOUNDS xy xz yz pp pp pp
0.0000000000000000e+00 3.5488465600999999e+00 0.0000000000000000e+00
-5.1215502500000003e-02 3.5488465600999999e+00 0.0000000000000000e+00
0.0000000000000000e+00 5.1732830798000000e+00 -5.1215502500000003e-02
ITEM: ATOMS id type xs ys zs fx fy fz
1 1 0.5 0.5 0.5 -5.01146e-10 0.128119 0.00180407
2 1 0 2.81782e-11 0 5.01149e-10 -0.128119 -0.00180407
3 5 0.5 1 0.300666 -2.08134e-10 -0.104106 -0.0050847
4 5 0 0.5 0.199334 2.08133e-10 0.104106 0.0050847
5 5 0 0.5 0.699334 9.19679e-10 -0.0372899 -0.000958917
6 5 0.5 7.03063e-12 0.800666 -9.19682e-10 0.0372899 0.000958917
