ITEM: TIMESTEP
0
ITEM: NUMBER OF ATOMS
6
ITEM: BOX BOUNDS xy xz yz pp pp pp
0.0000000000000000e+00 3.5488465600999999e+00 0.0000000000000000e+00
-5.1732830799999997e-02 3.5488465600999999e+00 0.0000000000000000e+00
0.0000000000000000e+00 5.1727657515000001e+00 -5.1732830799999997e-02
ITEM: ATOMS id type xs ys zs fx fy fz
1 1 0.5 0.5 0.5 -5.01468e-10 0.129466 0.00184257
2 1 0 2.81782e-11 0 5.01464e-10 -0.129466 -0.00184257
3 5 0.5 1.66473e-12 0.300666 -2.08216e-10 -0.105251 -0.00593889
4 5 0 0.5 0.199334 2.08216e-10 0.105251 0.00593889
5 5 0 0.5 0.699334 9.19952e-10 -0.0376999 -0.000228208
6 5 0.5 1.52382e-12 0.800666 -9.19948e-10 0.0376999 0.000228209
