ITEM: TIMESTEP
0
ITEM: NUMBER OF ATOMS
6
ITEM: BOX BOUNDS xy xz yz pp pp pp
0.0000000000000000e+00 3.6010967192000001e+00 0.0000000000000000e+00
0.0000000000000000e+00 3.5488465600999999e+00 5.2250159099999999e-02
0.0000000000000000e+00 5.1732830798000000e+00 0.0000000000000000e+00
ITEM: ATOMS id type xs ys zs fx fy fz
1 1 0.5 0.5 0.5 0.130712 -3.8483e-10 -0.00187777
2 1 0 2.81782e-11 0 -0.130712 -7.05011e-10 0.00187777
3 5 0.5 0 0.300666 -0.0380409 1.02297e-09 0.000997809
4 5 1 0.5 0.199334 0.0380409 1.24642e-10 -0.000997809
5 5 1.02152e-11 0.5 0.699334 -0.106211 -3.66497e-10 0.00529207
6 5 0.5 0 0.800666 0.106211 3.0873e-10 -0.00529207
