ITEM: TIMESTEP
0
ITEM: NUMBER OF ATOMS
6
ITEM: BOX BOUNDS xy xz yz pp pp pp
-3.5488465599999998e-02 3.5488465600999999e+00 -3.5488465599999998e-02
0.0000000000000000e+00 3.5488465600999999e+00 0.0000000000000000e+00
0.0000000000000000e+00 5.1738004081000000e+00 0.0000000000000000e+00
ITEM: ATOMS id type xs ys zs fx fy fz
1 1 0.5 0.5 0.5 -4.92134e-10 -3.87797e-10 -0.00108985
2 1 2.81782e-13 2.81782e-11 0 4.91546e-10 -7.01231e-10 0.00108985
3 5 0.5 0 0.300666 -2.05318e-10 1.01393e-09 0.00131737
4 5 1.40891e-13 0.5 0.199334 1.97378e-10 1.3264e-10 -0.00131737
5 5 1.40891e-13 0.5 0.699334 9.15608e-10 -3.55387e-10 -0.000351816
6 5 0.5 0 0.800666 -9.07083e-10 2.97848e-10 0.000351815
