ITEM: TIMESTEP
0
ITEM: NUMBER OF ATOMS
6
ITEM: BOX BOUNDS xy xz yz pp pp pp
0.0000000000000000e+00 3.5493690616999998e+00 0.0000000000000000e+00
0.0000000000000000e+00 3.5488465600999999e+00 5.2250159999999996e-04
0.0000000000000000e+00 5.2250159105999998e+00 0.0000000000000000e+00
ITEM: ATOMS id type xs ys zs fx fy fz
1 1 0.5 0.5 0.5 0.00125728 -3.56906e-10 -1.69769e-07
2 1 0 2.81782e-11 0 -0.00125728 -6.768e-10 1.69769e-07
3 5 0.5 0 0.300666 -0.000346903 9.94346e-10 0.0746733
4 5 1 0.5 0.199334 0.000346903 1.01966e-10 -0.0746733
5 5 1 0.5 0.699334 -0.000968874 -3.69644e-10 -0.0746727
6 5 0.5 0 0.800666 0.000968874 3.07037e-10 0.0746727
