ITEM: TIMESTEP
0
ITEM: NUMBER OF ATOMS
6
ITEM: BOX BOUNDS xy xz yz pp pp pp
-3.5488465599999998e-02 3.5488465600999999e+00 -3.5488465599999998e-02
0.0000000000000000e+00 3.5484916754000002e+00 0.0000000000000000e+00
0.0000000000000000e+00 5.1732830798000000e+00 0.0000000000000000e+00
ITEM: ATOMS id type xs ys zs fx fy fz
1 1 0.5 0.5 0.5 -4.92785e-10 -8.90573e-10 0.00109035
2 1 2.8181e-13 2.8181e-11 0 4.92216e-10 -2.0055e-10 -0.00109035
3 5 0.5 0 0.300666 -1.99809e-10 1.9352e-09 -0.000819941
4 5 2.8181e-13 0.5 0.199334 1.91849e-10 -7.86782e-10 0.000819941
5 5 2.8181e-13 0.5 0.699334 9.04813e-10 -5.63847e-10 -0.000146906
6 5 0.5 0 0.800666 -8.96284e-10 5.06549e-10 0.000146906
