ITEM: TIMESTEP
0
ITEM: NUMBER OF ATOMS
6
ITEM: BOX BOUNDS xy xz yz pp pp pp
0.0000000000000000e+00 3.5488465600999999e+00 0.0000000000000000e+00
0.0000000000000000e+00 3.5137094303000000e+00 0.0000000000000000e+00
0.0000000000000000e+00 5.1732830798000000e+00 0.0000000000000000e+00
ITEM: ATOMS id type xs ys zs fx fy fz
1 1 0.5 0.5 0.5 -5.07623e-10 -4.70544e-10 0.224483
2 1 0 2.846e-11 0 5.07625e-10 -7.7473e-10 -0.224483
3 5 0.5 0 0.300666 -2.19185e-10 1.09197e-09 -0.148717
4 5 0 0.5 0.199334 2.19186e-10 1.92214e-10 0.148717
5 5 0 0.5 0.699334 9.33999e-10 -3.59448e-10 -0.0566965
6 5 0.5 1 0.800666 -9.33999e-10 3.20532e-10 0.0566965
