ITEM: TIMESTEP
0
ITEM: NUMBER OF ATOMS
6
ITEM: BOX BOUNDS xy xz yz pp pp pp
0.0000000000000000e+00 3.5741956471999998e+00 0.0000000000000000e+00
0.0000000000000000e+00 3.5488465600999999e+00 2.5349087100000001e-02
0.0000000000000000e+00 5.1732830798000000e+00 0.0000000000000000e+00
ITEM: ATOMS id type xs ys zs fx fy fz
1 1 0.5 0.5 0.5 0.0633668 -3.84754e-10 -0.000441636
2 1 0 2.81782e-11 0 -0.0633668 -7.05383e-10 0.000441636
3 5 0.5 0 0.300666 -0.0184773 1.02299e-09 0.000238944
4 5 1 0.5 0.199334 0.0184773 1.24727e-10 -0.000238944
5 5 1 0.5 0.699334 -0.0515112 -3.66462e-10 0.00124331
6 5 0.5 0 0.800666 0.0515112 3.08877e-10 -0.00124331
