ITEM: TIMESTEP
0
ITEM: NUMBER OF ATOMS
6
ITEM: BOX BOUNDS xy xz yz pp pp pp
-3.5488469999999999e-04 3.5843350257000002e+00 -3.5488469999999999e-04
0.0000000000000000e+00 3.5488465600999999e+00 0.0000000000000000e+00
0.0000000000000000e+00 5.1732830798000000e+00 0.0000000000000000e+00
ITEM: ATOMS id type xs ys zs fx fy fz
1 1 0.5 0.5 0.5 -5.94168e-10 -3.75598e-10 0.20969
2 1 2.78992e-15 2.81782e-11 0 5.94159e-10 -7.13955e-10 -0.20969
3 5 0.5 0 0.300666 1.46011e-10 1.008e-09 -0.0516024
4 5 1.3951e-11 0.5 0.199334 -1.46088e-10 1.29753e-10 0.0516024
5 5 1.3951e-11 0.5 0.699334 4.02189e-10 -3.6245e-10 -0.128035
6 5 0.5 0 0.800666 -4.02102e-10 3.14253e-10 0.128035
