ITEM: TIMESTEP
0
ITEM: NUMBER OF ATOMS
6
ITEM: BOX BOUNDS xy xz yz pp pp pp
0.0000000000000000e+00 3.5665907929000000e+00 0.0000000000000000e+00
0.0000000000000000e+00 3.5488465600999999e+00 0.0000000000000000e+00
0.0000000000000000e+00 5.1727657515000001e+00 0.0000000000000000e+00
ITEM: ATOMS id type xs ys zs fx fy fz
1 1 0.5 0.5 0.5 -4.63201e-10 -3.80382e-10 0.106934
2 1 0 2.81782e-11 0 4.63198e-10 -7.10359e-10 -0.106934
3 5 0.5 0 0.300666 -1.99429e-10 1.01585e-09 -0.0272934
4 5 0 0.5 0.199334 1.99433e-10 1.2754e-10 0.0272934
5 5 0 0.5 0.699334 8.8501e-10 -3.64438e-10 -0.0659869
6 5 0.5 0 0.800666 -8.85011e-10 3.11789e-10 0.0659869
