
6 atoms
5 atom types

0.0000000000 3.5488465601 xlo xhi
0.0000000000 3.5488465601 ylo yhi
0.0000000000 5.1732830798 zlo zhi
0.0000000000 -0.0005173283 -0.0517328308 xy xz yz

Masses

1 178.4900
2 91.2240
3 88.9060
4 26.9820
5 15.9990

Atoms # atomic

1 1 1.7741646159 1.7485568647 2.5866415399
2 1 0.0000000000 0.0000000001 0.0000000000
3 5 1.7742677371 -0.0155543033 1.5554303305
4 5 -0.0001031211 1.7641111680 1.0312112094
5 5 -0.0003617853 1.7382447526 3.6178527493
6 5 1.7740090729 -0.0414207187 4.1420718704

