ITEM: TIMESTEP
0
ITEM: NUMBER OF ATOMS
6
ITEM: BOX BOUNDS xy xz yz pp pp pp
-3.5311020000000003e-04 3.5488465600999999e+00 -3.5311020000000003e-04
0.0000000000000000e+00 3.5311023273000002e+00 0.0000000000000000e+00
0.0000000000000000e+00 5.1732830798000000e+00 0.0000000000000000e+00
ITEM: ATOMS id type xs ys zs fx fy fz
1 1 0.5 0.5 0.5 -5.04379e-10 -4.27621e-10 0.111204
2 1 2.81782e-15 2.83198e-11 0 5.04383e-10 -7.39835e-10 -0.111204
3 5 0.5 0 0.300666 -2.13552e-10 1.05707e-09 -0.0722492
4 5 1.40891e-15 0.5 0.199334 2.13469e-10 1.58388e-10 0.0722492
5 5 1.40891e-15 0.5 0.699334 9.26748e-10 -3.62537e-10 -0.0279655
6 5 0.5 1 0.800666 -9.26667e-10 3.14538e-10 0.0279655
