ITEM: TIMESTEP
0
ITEM: NUMBER OF ATOMS
6
ITEM: BOX BOUNDS xy xz yz pp pp pp
0.0000000000000000e+00 3.5488465600999999e+00 0.0000000000000000e+00
0.0000000000000000e+00 3.5307492170999999e+00 0.0000000000000000e+00
0.0000000000000000e+00 5.1732830798000000e+00 0.0000000000000000e+00
ITEM: ATOMS id type xs ys zs fx fy fz
1 1 0.5 0.5 0.5 -5.04538e-10 -4.28436e-10 0.113461
2 1 0 2.83226e-11 0 5.04536e-10 -7.40573e-10 -0.113461
3 5 0.5 0 0.300666 -2.13691e-10 1.05784e-09 -0.0737454
4 5 0 0.5 0.199334 2.13692e-10 1.58977e-10 0.0737454
5 5 0 0.5 0.699334 9.26935e-10 -3.62585e-10 -0.028536
6 5 0.5 1 0.800666 -9.26933e-10 3.14775e-10 0.028536
