ITEM: TIMESTEP
0
ITEM: NUMBER OF ATOMS
6
ITEM: BOX BOUNDS xy xz yz pp pp pp
-1.7744232799999999e-02 3.5488465600999999e+00 -1.7744232799999999e-02
0.0000000000000000e+00 3.5493638883999998e+00 0.0000000000000000e+00
0.0000000000000000e+00 5.1732830798000000e+00 5.1732830000000005e-04
ITEM: ATOMS id type xs ys zs fx fy fz
1 1 0.5 0.5 0.5 7.16255e-06 -0.00129275 -0.000272394
2 1 1.40891e-13 2.81782e-11 0 -7.16255e-06 0.00129275 0.000272394
3 5 0.5 1 0.300666 -2.62997e-06 0.00105081 0.000144911
4 5 4.31859e-14 0.5 0.199334 2.62996e-06 -0.00105081 -0.000144911
5 5 1.13631e-13 0.5 0.699334 1.57899e-06 0.000377231 9.61395e-05
6 5 0.5 5.45228e-12 0.800666 -1.57898e-06 -0.000377232 -9.61395e-05
