ITEM: TIMESTEP
0
ITEM: NUMBER OF ATOMS
6
ITEM: BOX BOUNDS xy xz yz pp pp pp
-3.5488465599999998e-02 3.5488465600999999e+00 -3.5488465599999998e-02
0.0000000000000000e+00 3.5492014448000000e+00 0.0000000000000000e+00
0.0000000000000000e+00 5.1732830798000000e+00 0.0000000000000000e+00
ITEM: ATOMS id type xs ys zs fx fy fz
1 1 0.5 0.5 0.5 -4.92094e-10 1.12878e-10 -0.00326859
2 1 2.81754e-13 2.81754e-11 0 4.91497e-10 -1.20095e-09 0.00326859
3 5 0.5 0 0.300666 -2.10986e-10 9.46288e-11 0.00195327
4 5 8.67362e-19 0.5 0.199334 2.03051e-10 1.05113e-09 -0.00195327
5 5 8.67362e-19 0.5 0.699334 9.26904e-10 -1.47213e-10 0.000943168
6 5 0.5 0 0.800666 -9.18375e-10 8.95253e-11 -0.000943168
