ITEM: TIMESTEP
0
ITEM: NUMBER OF ATOMS
6
ITEM: BOX BOUNDS xy xz yz pp pp pp
0.0000000000000000e+00 3.5493664749999998e+00 0.0000000000000000e+00
0.0000000000000000e+00 3.5488465600999999e+00 5.1991489999999999e-04
0.0000000000000000e+00 5.1991494952000004e+00 0.0000000000000000e+00
ITEM: ATOMS id type xs ys zs fx fy fz
1 1 0.5 0.5 0.5 0.00127457 -3.70692e-10 -1.76647e-07
2 1 0 2.81782e-11 0 -0.00127457 -6.91228e-10 1.76647e-07
3 5 0.5 0 0.300666 -0.000362043 1.00863e-09 0.0374344
4 5 1 0.5 0.199334 0.000362043 1.13336e-10 -0.0374344
5 5 9.39207e-12 0.5 0.699334 -0.00100998 -3.67996e-10 -0.0374338
6 5 0.5 0 0.800666 0.00100998 3.07954e-10 0.0374338
