ITEM: TIMESTEP
0
ITEM: NUMBER OF ATOMS
6
ITEM: BOX BOUNDS xy xz yz pp pp pp
0.0000000000000000e+00 3.5843350256999997e+00 3.5488465599999998e-02
0.0000000000000000e+00 3.5493638883999998e+00 0.0000000000000000e+00
0.0000000000000000e+00 5.1732830798000000e+00 5.1732830000000005e-04
ITEM: ATOMS id type xs ys zs fx fy fz
1 1 0.5 0.5 0.5 -1.43159e-05 -0.00129232 -0.00108979
2 1 1 2.81782e-11 0 1.43159e-05 0.00129232 0.00108979
3 5 0.5 1 0.300666 5.30641e-06 0.00104982 0.000567258
4 5 1 0.5 0.199334 -5.30639e-06 -0.00104982 -0.000567258
5 5 1 0.5 0.699334 -3.22735e-06 0.000377257 0.00039832
6 5 0.5 5.45228e-12 0.800666 3.22734e-06 -0.000377257 -0.00039832
