ITEM: TIMESTEP
0
ITEM: NUMBER OF ATOMS
6
ITEM: BOX BOUNDS xy xz yz pp pp pp
0.0000000000000000e+00 3.5492014448000000e+00 3.5488469999999999e-04
0.0000000000000000e+00 3.5488465600999999e+00 0.0000000000000000e+00
0.0000000000000000e+00 5.2250159105999998e+00 0.0000000000000000e+00
ITEM: ATOMS id type xs ys zs fx fy fz
1 1 0.5 0.5 0.5 -3.09774e-10 -3.56938e-10 -1.07862e-07
2 1 1 2.81782e-11 0 3.09761e-10 -6.76781e-10 1.07862e-07
3 5 0.5 0 0.300666 -5.38508e-10 9.94464e-10 0.0746733
4 5 1 0.5 0.199334 5.38582e-10 1.01861e-10 -0.0746733
5 5 1 0.5 0.699334 1.34031e-09 -3.69848e-10 -0.0746732
6 5 0.5 0 0.800666 -1.34037e-09 3.07242e-10 0.0746732
