ITEM: TIMESTEP
0
ITEM: NUMBER OF ATOMS
6
ITEM: BOX BOUNDS xy xz yz pp pp pp
0.0000000000000000e+00 3.5488465600999999e+00 0.0000000000000000e+00
0.0000000000000000e+00 3.5752303037999997e+00 0.0000000000000000e+00
0.0000000000000000e+00 5.1732830798000000e+00 2.6383743700000000e-02
ITEM: ATOMS id type xs ys zs fx fy fz
1 1 0.5 0.5 0.5 -5.01243e-10 -0.0659545 0.000478433
2 1 0 2.81782e-11 0 5.01252e-10 0.0659545 -0.000478433
3 5 0.5 4.66311e-12 0.300666 -2.08082e-10 0.0536142 -0.00134726
4 5 0 0.5 0.199334 2.08082e-10 -0.0536142 0.00134726
5 5 0 0.5 0.699334 9.19646e-10 0.0192309 -0.000258413
6 5 0.5 1.87522e-11 0.800666 -9.19654e-10 -0.0192309 0.000258413
