ITEM: TIMESTEP
0
ITEM: NUMBER OF ATOMS
6
ITEM: BOX BOUNDS xy xz yz pp pp pp
0.0000000000000000e+00 3.5488465600999999e+00 0.0000000000000000e+00
0.0000000000000000e+00 3.5488465600999999e+00 0.0000000000000000e+00
0.0000000000000000e+00 5.1220624040000002e+00 0.0000000000000000e+00
ITEM: ATOMS id type xs ys zs fx fy fz
1 1 0.5 0.5 0.5 -5.31955e-10 -4.13147e-10 3.54924e-15
2 1 0 2.81782e-11 0 5.31952e-10 -7.33489e-10 -2.88658e-15
3 5 0.5 0 0.300666 -2.16095e-10 1.05231e-09 -0.0746037
4 5 0 0.5 0.199334 2.16095e-10 1.47321e-10 0.0746037
5 5 0 0.5 0.699334 9.45852e-10 -3.6416e-10 0.0746037
6 5 0.5 0 0.800666 -9.45848e-10 3.1116e-10 -0.0746037
