ITEM: TIMESTEP
0
ITEM: NUMBER OF ATOMS
6
ITEM: BOX BOUNDS xy xz yz pp pp pp
0.0000000000000000e+00 3.5484916754000002e+00 0.0000000000000000e+00
0.0000000000000000e+00 3.5488465600999999e+00 0.0000000000000000e+00
0.0000000000000000e+00 5.1732830798000000e+00 0.0000000000000000e+00
ITEM: ATOMS id type xs ys zs fx fy fz
1 1 0.5 0.5 0.5 -1.00413e-09 -3.84822e-10 -0.00218171
2 1 0 2.81782e-11 0 1.00412e-09 -7.05412e-10 0.00218171
3 5 0.5 0 0.300666 -4.16479e-10 1.02315e-09 0.000550561
4 5 0 0.5 0.199334 4.16481e-10 1.24711e-10 -0.000550561
5 5 0 0.5 0.699334 1.84071e-09 -3.66499e-10 0.0013845
6 5 0.5 0 0.800666 -1.84071e-09 3.08863e-10 -0.0013845
