ITEM: TIMESTEP
0
ITEM: NUMBER OF ATOMS
6
ITEM: BOX BOUNDS xy xz yz pp pp pp
0.0000000000000000e+00 3.5839765922000000e+00 0.0000000000000000e+00
0.0000000000000000e+00 3.5488465600999999e+00 0.0000000000000000e+00
0.0000000000000000e+00 5.1732830798000000e+00 0.0000000000000000e+00
ITEM: ATOMS id type xs ys zs fx fy fz
1 1 0.5 0.5 0.5 5.55112e-16 -3.75595e-10 0.207655
2 1 0 2.81782e-11 0 -1.11022e-16 -7.13983e-10 -0.207655
3 5 0.5 0 0.300666 2.22045e-16 1.00822e-09 -0.0511101
4 5 0 0.5 0.199334 -3.60822e-16 1.29652e-10 0.0511101
5 5 0 0.5 0.699334 2.22045e-16 -3.62516e-10 -0.126847
6 5 0.5 0 0.800666 1.38778e-16 3.14226e-10 0.126847
