ITEM: TIMESTEP
0
ITEM: NUMBER OF ATOMS
6
ITEM: BOX BOUNDS xy xz yz pp pp pp
0.0000000000000000e+00 3.5133580945000000e+00 0.0000000000000000e+00
0.0000000000000000e+00 3.5484916754000002e+00 0.0000000000000000e+00
0.0000000000000000e+00 5.1732830798000000e+00 0.0000000000000000e+00
ITEM: ATOMS id type xs ys zs fx fy fz
1 1 0.5 0.5 0.5 -5.80564e-10 -9.03385e-10 -0.224633
2 1 1 2.8181e-11 0 5.80586e-10 -1.86956e-10 0.224633
3 5 0.5 0 0.300666 -2.25452e-10 1.97364e-09 0.0559166
4 5 1 0.5 0.199334 2.25452e-10 -8.15145e-10 -0.0559166
5 5 0 0.5 0.699334 9.93209e-10 -5.90136e-10 0.14976
6 5 0.5 0 0.800666 -9.93229e-10 5.21979e-10 -0.14976
