ITEM: TIMESTEP
0
ITEM: NUMBER OF ATOMS
6
ITEM: BOX BOUNDS xy xz yz pp pp pp
0.0000000000000000e+00 3.5488465600999999e+00 0.0000000000000000e+00
-5.1732830000000005e-04 3.5311023273000002e+00 0.0000000000000000e+00
0.0000000000000000e+00 5.1732830798000000e+00 -5.1732830000000005e-04
ITEM: ATOMS id type xs ys zs fx fy fz
1 1 0.5 0.5 0.5 -5.0447e-10 0.00133971 0.111204
2 1 0 2.83198e-11 0 5.04474e-10 -0.00133971 -0.111204
3 5 0.5 8.6802e-12 0.300666 -2.13583e-10 -0.00113087 -0.0722498
4 5 0 0.5 0.199334 2.13585e-10 0.00113087 0.0722498
5 5 0 0.5 0.699334 9.26786e-10 -0.000415397 -0.0279657
6 5 0.5 1 0.800666 -9.26791e-10 0.000415397 0.0279657
