ITEM: TIMESTEP
0
ITEM: NUMBER OF ATOMS
6
ITEM: BOX BOUNDS xy xz yz pp pp pp
0.0000000000000000e+00 3.6005793908999997e+00 0.0000000000000000e+00
0.0000000000000000e+00 3.5492014448000000e+00 5.1732830799999997e-02
0.0000000000000000e+00 5.1732830798000000e+00 0.0000000000000000e+00
ITEM: ATOMS id type xs ys zs fx fy fz
1 1 0.5 0.5 0.5 0.129398 1.16404e-10 -0.00402087
2 1 0 2.81754e-11 0 -0.129398 -1.20473e-09 0.00402087
3 5 0.5 0 0.300666 -0.0376379 1.03297e-10 0.00236441
4 5 1.57835e-12 0.5 0.199334 0.0376379 1.04298e-09 -0.00236441
5 5 1.57835e-12 0.5 0.699334 -0.105164 -1.58607e-10 0.00573233
6 5 0.5 0 0.800666 0.105164 1.00653e-10 -0.00573233
