ITEM: TIMESTEP
0
ITEM: NUMBER OF ATOMS
6
ITEM: BOX BOUNDS xy xz yz pp pp pp
-2.5863828799999999e-02 3.5484916754000002e+00 0.0000000000000000e+00
0.0000000000000000e+00 3.5488465600999999e+00 -2.5863828799999999e-02
0.0000000000000000e+00 5.1732830798000000e+00 0.0000000000000000e+00
ITEM: ATOMS id type xs ys zs fx fy fz
1 1 0.5 0.5 0.5 -0.0646999 -3.84844e-10 -0.00264229
2 1 0 2.81782e-11 0 0.0646999 -7.05286e-10 0.00264229
3 5 0.5 0 0.300666 0.0188902 1.02315e-09 0.000794064
4 5 1.40553e-11 0.5 0.199334 -0.0188902 1.24679e-10 -0.000794064
5 5 1.40553e-11 0.5 0.699334 0.0526362 -3.66503e-10 0.00268473
6 5 0.5 0 0.800666 -0.0526362 3.08811e-10 -0.00268473
