ITEM: TIMESTEP
0
ITEM: NUMBER OF ATOMS
6
ITEM: BOX BOUNDS xy xz yz pp pp pp
0.0000000000000000e+00 3.5665907929000000e+00 0.0000000000000000e+00
-5.1732830000000005e-04 3.5488465600999999e+00 0.0000000000000000e+00
0.0000000000000000e+00 5.1732830798000000e+00 -5.1732830000000005e-04
ITEM: ATOMS id type xs ys zs fx fy fz
1 1 0.5 0.5 0.5 -4.62899e-10 0.00128439 0.106923
2 1 0 2.81782e-11 0 4.62893e-10 -0.00128439 -0.106923
3 5 0.5 8.6368e-12 0.300666 -1.99351e-10 -0.00105305 -0.0265212
4 5 0 0.5 0.199334 1.99352e-10 0.00105305 0.0265212
5 5 0 0.5 0.699334 8.84775e-10 -0.000364073 -0.0666962
6 5 0.5 1 0.800666 -8.8477e-10 0.000364073 0.0666962
