ITEM: TIMESTEP
0
ITEM: NUMBER OF ATOMS
6
ITEM: BOX BOUNDS xy xz yz pp pp pp
0.0000000000000000e+00 3.5665907929000000e+00 1.7744232799999999e-02
0.0000000000000000e+00 3.5484916754000002e+00 0.0000000000000000e+00
0.0000000000000000e+00 5.1732830798000000e+00 0.0000000000000000e+00
ITEM: ATOMS id type xs ys zs fx fy fz
1 1 0.5 0.5 0.5 -5.05524e-10 -8.85592e-10 0.00190878
2 1 1 2.8181e-11 0 5.05802e-10 -2.06004e-10 -0.00190878
3 5 0.5 0 0.300666 -2.12469e-10 1.94838e-09 -0.00124375
4 5 1 0.5 0.199334 2.16453e-10 -7.99454e-10 0.00124375
5 5 1 0.5 0.699334 9.27332e-10 -5.80548e-10 -0.000449137
6 5 0.5 0 0.800666 -9.31595e-10 5.23217e-10 0.000449137
