ITEM: TIMESTEP
0
ITEM: NUMBER OF ATOMS
6
ITEM: BOX BOUNDS xy xz yz pp pp pp
0.0000000000000000e+00 3.5846934591999999e+00 3.5492014400000001e-02
0.0000000000000000e+00 3.5488465600999999e+00 0.0000000000000000e+00
0.0000000000000000e+00 5.1732830798000000e+00 0.0000000000000000e+00
ITEM: ATOMS id type xs ys zs fx fy fz
1 1 0.5 0.5 0.5 -1.21389e-09 -3.74729e-10 0.00108939
2 1 1 2.81782e-11 0 1.25642e-10 -7.14295e-10 -0.00108939
3 5 0.5 0 0.300666 9.82592e-11 1.03102e-09 2.28722e-05
4 5 1 0.5 0.199334 -1.47863e-10 1.19499e-10 -2.28722e-05
5 5 1 0.5 0.699334 1.04694e-09 -3.71146e-10 -0.000988223
6 5 0.5 0 0.800666 9.08992e-11 3.09652e-10 0.000988223
