ITEM: TIMESTEP
0
ITEM: NUMBER OF ATOMS
6
ITEM: BOX BOUNDS xy xz yz pp pp pp
0.0000000000000000e+00 3.6005793908999997e+00 0.0000000000000000e+00
-5.1732830000000005e-04 3.5488465600999999e+00 5.1732830799999997e-02
0.0000000000000000e+00 5.1732830798000000e+00 -5.1732830000000005e-04
ITEM: ATOMS id type xs ys zs fx fy fz
1 1 0.5 0.5 0.5 0.129416 0.001293 -0.00184055
2 1 0 2.81782e-11 0 -0.129416 -0.001293 0.00184055
3 5 0.5 8.6368e-12 0.300666 -0.0376654 -0.00105082 0.000977751
4 5 1.57835e-12 0.5 0.199334 0.0376654 0.00105082 -0.000977751
5 5 1.57835e-12 0.5 0.699334 -0.105159 -0.000377405 0.00518777
6 5 0.5 1 0.800666 0.105159 0.000377405 -0.00518777
