ITEM: TIMESTEP
0
ITEM: NUMBER OF ATOMS
6
ITEM: BOX BOUNDS xy xz yz pp pp pp
0.0000000000000000e+00 3.5665907929000000e+00 1.7744232799999999e-02
0.0000000000000000e+00 3.5488465600999999e+00 0.0000000000000000e+00
0.0000000000000000e+00 5.1727657515000001e+00 0.0000000000000000e+00
ITEM: ATOMS id type xs ys zs fx fy fz
1 1 0.5 0.5 0.5 -5.05912e-10 -3.83079e-10 -0.000272608
2 1 1 2.81782e-11 0 5.06196e-10 -7.07554e-10 0.000272608
3 5 0.5 0 0.300666 -2.09602e-10 1.02767e-09 -0.00060499
4 5 1 0.5 0.199334 2.13582e-10 1.20444e-10 0.000604988
5 5 1 0.5 0.699334 9.21865e-10 -3.72274e-10 0.000846817
6 5 0.5 0 0.800666 -9.26128e-10 3.14797e-10 -0.000846816
