ITEM: TIMESTEP
0
ITEM: NUMBER OF ATOMS
6
ITEM: BOX BOUNDS xy xz yz pp pp pp
0.0000000000000000e+00 3.5843350256999997e+00 3.5488465599999998e-02
0.0000000000000000e+00 3.5488465600999999e+00 0.0000000000000000e+00
0.0000000000000000e+00 5.1732830798000000e+00 0.0000000000000000e+00
ITEM: ATOMS id type xs ys zs fx fy fz
1 1 0.5 0.5 0.5 -5.09832e-10 -3.8069e-10 -0.00108998
2 1 1 2.81782e-11 0 5.10409e-10 -7.0891e-10 0.00108998
3 5 0.5 0 0.300666 -2.11117e-10 1.03176e-09 0.000567776
4 5 1 0.5 0.199334 2.19059e-10 1.15338e-10 -0.000567776
5 5 1 0.5 0.699334 9.2367e-10 -3.78383e-10 0.000398419
6 5 0.5 0 0.800666 -9.32189e-10 3.20889e-10 -0.000398419
ITEM: TIMESTEP
8
ITEM: NUMBER OF ATOMS
6
ITEM: BOX BOUNDS xy xz yz pp pp pp
0.0000000000000000e+00 3.5843350256999997e+00 3.5488465599999998e-02
0.0000000000000000e+00 3.5488465600999999e+00 0.0000000000000000e+00
0.0000000000000000e+00 5.1732830798000000e+00 0.0000000000000000e+00
ITEM: ATOMS id type xs ys zs fx fy fz
1 1 0.5 0.5 0.499996 -1.58384e-12 2.40209e-12 5.50254e-14
2 1 6.83789e-12 1.31908e-11 3.72073e-06 1.25955e-12 -8.85331e-12 -5.25135e-14
3 5 0.5 1.27024e-11 0.300672 -5.02937e-12 -5.17712e-12 -2.55351e-13
4 5 6.8237e-12 0.5 0.199328 4.7844e-12 -9.96963e-12 2.58349e-13
5 5 6.94015e-12 0.5 0.699334 5.94039e-13 4.9214e-12 1.42109e-13
6 5 0.5 9.29075e-12 0.800666 -2.59792e-14 1.66763e-11 -1.48541e-13
