ITEM: TIMESTEP
0
ITEM: NUMBER OF ATOMS
6
ITEM: BOX BOUNDS xy xz yz pp pp pp
0.0000000000000000e+00 3.5488465600999999e+00 0.0000000000000000e+00
0.0000000000000000e+00 3.5843350257000002e+00 0.0000000000000000e+00
0.0000000000000000e+00 5.1727657515000001e+00 0.0000000000000000e+00
ITEM: ATOMS id type xs ys zs fx fy fz
1 1 0.5 0.5 0.5 -4.95239e-10 -3.02354e-10 -0.209712
2 1 0 2.78992e-11 0 4.95237e-10 -6.4038e-10 0.209712
3 5 0.5 0 0.300666 -1.97563e-10 9.58116e-10 0.127367
4 5 0 0.5 0.199334 1.97563e-10 6.16654e-11 -0.127367
5 5 0 0.5 0.699334 9.05985e-10 -3.7466e-10 0.0523956
6 5 0.5 0 0.800666 -9.05986e-10 2.97609e-10 -0.0523956
