ITEM: TIMESTEP
0
ITEM: NUMBER OF ATOMS
6
ITEM: BOX BOUNDS xy xz yz pp pp pp
0.0000000000000000e+00 3.5843350256999997e+00 3.5488465599999998e-02
0.0000000000000000e+00 3.5492014448000000e+00 0.0000000000000000e+00
0.0000000000000000e+00 5.1732830798000000e+00 0.0000000000000000e+00
ITEM: ATOMS id type xs ys zs fx fy fz
1 1 0.5 0.5 0.5 -5.1006e-10 1.20257e-10 -0.00326859
2 1 1 2.81754e-11 0 5.10655e-10 -1.20833e-09 0.00326859
3 5 0.5 0 0.300666 -2.05311e-10 1.12157e-10 0.00195327
4 5 -8.67362e-19 0.5 0.199334 2.1324e-10 1.0336e-09 -0.00195327
5 5 -8.67362e-19 0.5 0.699334 9.12337e-10 -1.70222e-10 0.000943168
6 5 0.5 0 0.800666 -9.20864e-10 1.12535e-10 -0.000943168
