
6 atoms
5 atom types

0.0000000000 3.5488465601 xlo xhi
0.0000000000 3.5488465601 ylo yhi
0.0000000000 5.2255384122 zlo zhi
0.0000000000 0.0000000000 0.0000000000 xy xz yz

Masses

1 178.4900
2 91.2240
3 88.9060
4 26.9820
5 15.9990

Atoms # atomic

1 1 1.7744232801 1.7744232801 2.6127692061
2 1 0.0000000000 0.0000000001 0.0000000000
3 5 1.7744232801 0.0000000000 1.5711417323
4 5 0.0000000000 1.7744232801 1.0416274738
5 5 0.0000000000 1.7744232801 3.6543966799
6 5 1.7744232801 0.0000000000 4.1839109384

