ITEM: TIMESTEP
0
ITEM: NUMBER OF ATOMS
6
ITEM: BOX BOUNDS xy xz yz pp pp pp
0.0000000000000000e+00 3.5488465600999999e+00 0.0000000000000000e+00
0.0000000000000000e+00 3.5488465600999999e+00 0.0000000000000000e+00
0.0000000000000000e+00 5.2255384121999997e+00 0.0000000000000000e+00
ITEM: ATOMS id type xs ys zs fx fy fz
1 1 0.5 0.5 0.5 -4.69313e-10 -3.56638e-10 8.32667e-15
2 1 0 2.81782e-11 0 4.69308e-10 -6.76513e-10 3.33067e-16
3 5 0.5 0 0.300666 -2.00058e-10 9.94067e-10 0.0754239
4 5 0 0.5 0.199334 2.00057e-10 1.01742e-10 -0.0754239
5 5 0 0.5 0.699334 8.93827e-10 -3.69677e-10 -0.0754239
6 5 0.5 0 0.800666 -8.93822e-10 3.07018e-10 0.0754239
