ITEM: TIMESTEP
0
ITEM: NUMBER OF ATOMS
6
ITEM: BOX BOUNDS xy xz yz pp pp pp
-3.5488469999999999e-04 3.5133580945000000e+00 -3.5488469999999999e-04
0.0000000000000000e+00 3.5488465600999999e+00 0.0000000000000000e+00
0.0000000000000000e+00 5.1732830798000000e+00 0.0000000000000000e+00
ITEM: ATOMS id type xs ys zs fx fy fz
1 1 0.5 0.5 0.5 -7.32429e-10 -3.94177e-10 -0.226815
2 1 2.66454e-15 2.81782e-11 0 7.32438e-10 -6.94658e-10 0.226815
3 5 0.5 0 0.300666 1.14722e-10 1.03805e-09 0.0572899
4 5 1.42328e-11 0.5 0.199334 -1.14804e-10 1.19122e-10 -0.0572899
5 5 1.42328e-11 0.5 0.699334 5.43134e-10 -3.70698e-10 0.150321
6 5 0.5 0 0.800666 -5.4306e-10 3.02358e-10 -0.150321
