ITEM: TIMESTEP
0
ITEM: NUMBER OF ATOMS
6
ITEM: BOX BOUNDS xy xz yz pp pp pp
0.0000000000000000e+00 3.6009394489000002e+00 0.0000000000000000e+00
0.0000000000000000e+00 3.5488465600999999e+00 5.1738004099999998e-02
0.0000000000000000e+00 5.1732830798000000e+00 0.0000000000000000e+00
ITEM: ATOMS id type xs ys zs fx fy fz
1 1 0.5 0.5 0.5 0.129337 -3.84728e-10 0.000342162
2 1 0 2.81782e-11 0 -0.129337 -7.05107e-10 -0.000342162
3 5 0.5 0 0.300666 -0.0375935 1.02281e-09 0.00043313
4 5 1 0.5 0.199334 0.0375935 1.24687e-10 -0.00043313
5 5 1.15573e-11 0.5 0.699334 -0.105012 -3.66452e-10 0.00379926
6 5 0.5 0 0.800666 0.105012 3.08791e-10 -0.00379926
