ITEM: TIMESTEP
0
ITEM: NUMBER OF ATOMS
6
ITEM: BOX BOUNDS xy xz yz pp pp pp
0.0000000000000000e+00 3.5488465600999999e+00 0.0000000000000000e+00
0.0000000000000000e+00 3.5846934591999999e+00 0.0000000000000000e+00
0.0000000000000000e+00 5.1732830798000000e+00 0.0000000000000000e+00
ITEM: ATOMS id type xs ys zs fx fy fz
1 1 0.5 0.5 0.5 -4.94853e-10 -7.25772e-10 -0.211724
2 1 0 2.78964e-11 0 4.94856e-10 -2.1497e-10 0.211724
3 5 0.5 0 0.300666 -1.97383e-10 1.80695e-09 0.12922
4 5 0 0.5 0.199334 1.97382e-10 -7.88906e-10 -0.12922
5 5 0 0.5 0.699334 9.05582e-10 -5.64748e-10 0.0520941
6 5 0.5 0 0.800666 -9.05586e-10 4.87444e-10 -0.0520941
