ITEM: TIMESTEP
0
ITEM: NUMBER OF ATOMS
6
ITEM: BOX BOUNDS xy xz yz pp pp pp
-1.7742458400000001e-02 3.5484916754000002e+00 -1.7742458400000001e-02
0.0000000000000000e+00 3.5488465600999999e+00 0.0000000000000000e+00
0.0000000000000000e+00 5.1732830798000000e+00 0.0000000000000000e+00
ITEM: ATOMS id type xs ys zs fx fy fz
1 1 0.5 0.5 0.5 -9.9971e-10 -3.8843e-10 -0.00245413
2 1 1.40891e-13 2.81782e-11 0 9.99416e-10 -7.01652e-10 0.00245413
3 5 0.5 0 0.300666 -4.15155e-10 1.0144e-09 0.000690843
4 5 7.04454e-14 0.5 0.199334 4.11176e-10 1.33298e-10 -0.000690843
5 5 7.04454e-14 0.5 0.699334 1.83883e-09 -3.5511e-10 0.0014857
6 5 0.5 0 0.800666 -1.83456e-09 2.97486e-10 -0.0014857
