ITEM: TIMESTEP
0
ITEM: NUMBER OF ATOMS
6
ITEM: BOX BOUNDS xy xz yz pp pp pp
0.0000000000000000e+00 3.5488465600999999e+00 0.0000000000000000e+00
0.0000000000000000e+00 3.5488465600999999e+00 0.0000000000000000e+00
0.0000000000000000e+00 5.1479314060999997e+00 0.0000000000000000e+00
ITEM: ATOMS id type xs ys zs fx fy fz
1 1 0.5 0.5 0.5 -5.16517e-10 -3.98701e-10 7.01997e-10
2 1 0 2.81782e-11 0 5.16515e-10 -7.19395e-10 -7.01991e-10
3 5 0.5 0 0.300666 -2.11987e-10 1.03733e-09 -0.0368655
4 5 0 0.5 0.199334 2.11984e-10 1.3595e-10 0.0368655
5 5 0 0.5 0.699334 9.32446e-10 -3.65158e-10 0.0368655
6 5 0.5 0 0.800666 -9.3244e-10 3.09969e-10 -0.0368655
