ITEM: TIMESTEP
0
ITEM: NUMBER OF ATOMS
6
ITEM: BOX BOUNDS xy xz yz pp pp pp
0.0000000000000000e+00 3.5843350256999997e+00 3.5488465599999998e-02
0.0000000000000000e+00 3.5484916754000002e+00 0.0000000000000000e+00
0.0000000000000000e+00 5.1732830798000000e+00 0.0000000000000000e+00
ITEM: ATOMS id type xs ys zs fx fy fz
1 1 0.5 0.5 0.5 -5.09622e-10 -8.83181e-10 0.00109035
2 1 1 2.8181e-11 0 5.10187e-10 -2.0794e-10 -0.00109035
3 5 0.5 0 0.300666 -2.16921e-10 1.95275e-09 -0.000819941
4 5 1 0.5 0.199334 2.2488e-10 -8.04334e-10 0.000819941
5 5 1 0.5 0.699334 9.34995e-10 -5.86891e-10 -0.000146906
6 5 0.5 0 0.800666 -9.43519e-10 5.29591e-10 0.000146906
