ITEM: TIMESTEP
0
ITEM: NUMBER OF ATOMS
6
ITEM: BOX BOUNDS xy xz yz pp pp pp
0.0000000000000000e+00 3.5311023273000002e+00 0.0000000000000000e+00
0.0000000000000000e+00 3.5488465600999999e+00 0.0000000000000000e+00
0.0000000000000000e+00 5.1738004081000000e+00 0.0000000000000000e+00
ITEM: ATOMS id type xs ys zs fx fy fz
1 1 0.5 0.5 0.5 -5.40158e-10 -3.89103e-10 -0.111191
2 1 1 2.81782e-11 0 5.40174e-10 -7.00116e-10 0.111191
3 5 0.5 0 0.300666 -2.16654e-10 1.03022e-09 0.0286929
4 5 1 0.5 0.199334 2.16656e-10 1.2179e-10 -0.0286929
5 5 0 0.5 0.699334 9.5542e-10 -3.68556e-10 0.0714573
6 5 0.5 0 0.800666 -9.55436e-10 3.05769e-10 -0.0714573
