ITEM: TIMESTEP
0
ITEM: NUMBER OF ATOMS
6
ITEM: BOX BOUNDS xy xz yz pp pp pp
0.0000000000000000e+00 3.5492014448000000e+00 0.0000000000000000e+00
-2.5866415399999999e-02 3.5488465600999999e+00 0.0000000000000000e+00
0.0000000000000000e+00 5.1732830798000000e+00 -2.5866415399999999e-02
ITEM: ATOMS id type xs ys zs fx fy fz
1 1 0.5 0.5 0.5 8.43769e-15 0.064652 0.00263988
2 1 0 2.81782e-11 0 -1.55986e-14 -0.064652 -0.00263988
3 5 0.5 1 0.300666 4.996e-15 -0.052565 -0.00183949
4 5 0 0.5 0.199334 -3.46945e-15 0.052565 0.00183949
5 5 0 0.5 0.699334 -1.14977e-14 -0.0188405 -0.0016357
6 5 0.5 1 0.800666 1.77636e-14 0.0188405 0.0016357
