ITEM: TIMESTEP
0
ITEM: NUMBER OF ATOMS
6
ITEM: BOX BOUNDS xy xz yz pp pp pp
0.0000000000000000e+00 3.5137094303000000e+00 0.0000000000000000e+00
0.0000000000000000e+00 3.5488465600999999e+00 0.0000000000000000e+00
0.0000000000000000e+00 5.1732830798000000e+00 0.0000000000000000e+00
ITEM: ATOMS id type xs ys zs fx fy fz
1 1 0.5 0.5 0.5 -5.79699e-10 -3.93994e-10 -0.224483
2 1 1 2.81782e-11 0 5.79714e-10 -6.94867e-10 0.224483
3 5 0.5 0 0.300666 -2.25166e-10 1.03797e-09 0.0566965
4 5 1 0.5 0.199334 2.25167e-10 1.19125e-10 -0.0566965
5 5 0 0.5 0.699334 9.92306e-10 -3.70682e-10 0.148717
6 5 0.5 0 0.800666 -9.92322e-10 3.02451e-10 -0.148717
