ITEM: TIMESTEP
0
ITEM: NUMBER OF ATOMS
6
ITEM: BOX BOUNDS xy xz yz pp pp pp
0.0000000000000000e+00 3.5846899103999998e+00 3.5843350300000000e-02
0.0000000000000000e+00 3.5488465600999999e+00 0.0000000000000000e+00
0.0000000000000000e+00 5.1732830798000000e+00 0.0000000000000000e+00
ITEM: ATOMS id type xs ys zs fx fy fz
1 1 0.5 0.5 0.5 -3.4957e-10 -3.86279e-10 -0.00111188
2 1 1 2.81782e-11 0 3.50175e-10 -7.0331e-10 0.00111188
3 5 0.5 0 0.300666 -5.49144e-10 1.03421e-09 0.000579127
4 5 1 0.5 0.199334 5.57171e-10 1.12867e-10 -0.000579127
5 5 1 0.5 0.699334 1.37288e-09 -3.87842e-10 0.000406476
6 5 0.5 0 0.800666 -1.38151e-09 3.3035e-10 -0.000406476
