ITEM: TIMESTEP
0
ITEM: NUMBER OF ATOMS
6
ITEM: BOX BOUNDS xy xz yz pp pp pp
0.0000000000000000e+00 3.5662359081999999e+00 1.7389348100000000e-02
0.0000000000000000e+00 3.5488465600999999e+00 0.0000000000000000e+00
0.0000000000000000e+00 5.1732830798000000e+00 0.0000000000000000e+00
ITEM: ATOMS id type xs ys zs fx fy fz
1 1 0.5 0.5 0.5 -6.65882e-10 -3.80114e-10 -0.000261785
2 1 1 2.81782e-11 0 6.66173e-10 -7.09971e-10 0.000261785
3 5 0.5 0 0.300666 1.28267e-10 1.02615e-09 0.000139871
4 5 1.40201e-11 0.5 0.199334 -1.24368e-10 1.21455e-10 -0.000139871
5 5 1.40201e-11 0.5 0.699334 4.72421e-10 -3.67662e-10 9.22281e-05
6 5 0.5 0 0.800666 -4.7661e-10 3.10141e-10 -9.22281e-05
