ITEM: TIMESTEP
0
ITEM: NUMBER OF ATOMS
6
ITEM: BOX BOUNDS xy xz yz pp pp pp
0.0000000000000000e+00 3.5747129754999998e+00 0.0000000000000000e+00
0.0000000000000000e+00 3.5488465600999999e+00 2.5866415399999999e-02
0.0000000000000000e+00 5.1738004081000000e+00 0.0000000000000000e+00
ITEM: ATOMS id type xs ys zs fx fy fz
1 1 0.5 0.5 0.5 0.0646353 -3.84464e-10 -0.000459391
2 1 0 2.81782e-11 0 -0.0646353 -7.05104e-10 0.000459391
3 5 0.5 0 0.300666 -0.0188369 1.02271e-09 0.000999021
4 5 1 0.5 0.199334 0.0188369 1.24504e-10 -0.000999019
5 5 1 0.5 0.699334 -0.0525165 -3.66496e-10 0.000544075
6 5 0.5 0 0.800666 0.0525165 3.08856e-10 -0.000544076
