ITEM: TIMESTEP
0
ITEM: NUMBER OF ATOMS
6
ITEM: BOX BOUNDS xy xz yz pp pp pp
0.0000000000000000e+00 3.5669456775999997e+00 1.8099117500000001e-02
0.0000000000000000e+00 3.5488465600999999e+00 0.0000000000000000e+00
0.0000000000000000e+00 5.1732830798000000e+00 0.0000000000000000e+00
ITEM: ATOMS id type xs ys zs fx fy fz
1 1 0.5 0.5 0.5 -3.45306e-10 -3.85602e-10 -0.000283589
2 1 1 2.81782e-11 0 3.45593e-10 -7.04468e-10 0.000283589
3 5 0.5 0 0.300666 -5.47325e-10 1.02864e-09 0.000151102
4 5 1 0.5 0.199334 5.51385e-10 1.18949e-10 -0.000151102
5 5 1 0.5 0.699334 1.37079e-09 -3.7712e-10 0.000100327
6 5 0.5 0 0.800666 -1.37514e-09 3.19599e-10 -0.000100327
