ITEM: TIMESTEP
0
ITEM: NUMBER OF ATOMS
6
ITEM: BOX BOUNDS xy xz yz pp pp pp
0.0000000000000000e+00 3.5665907929000000e+00 0.0000000000000000e+00
0.0000000000000000e+00 3.5488465600999999e+00 0.0000000000000000e+00
0.0000000000000000e+00 5.1738004081000000e+00 0.0000000000000000e+00
ITEM: ATOMS id type xs ys zs fx fy fz
1 1 0.5 0.5 0.5 -4.62589e-10 -3.79816e-10 0.106911
2 1 0 2.81782e-11 0 4.62589e-10 -7.09775e-10 -0.106911
3 5 0.5 0 0.300666 -1.99264e-10 1.01527e-09 -0.0257481
4 5 0 0.5 0.199334 1.99268e-10 1.27079e-10 0.0257481
5 5 0 0.5 0.699334 8.84519e-10 -3.645e-10 -0.0674052
6 5 0.5 0 0.800666 -8.84517e-10 3.11743e-10 0.0674052
