ITEM: TIMESTEP
0
ITEM: NUMBER OF ATOMS
6
ITEM: BOX BOUNDS xy xz yz pp pp pp
-2.6221300099999997e-02 3.5488465600999999e+00 -3.5488469999999999e-04
0.0000000000000000e+00 3.5488465600999999e+00 -2.5866415399999999e-02
0.0000000000000000e+00 5.1732830798000000e+00 0.0000000000000000e+00
ITEM: ATOMS id type xs ys zs fx fy fz
1 1 0.5 0.5 0.5 -0.0646606 -5.7659e-06 -0.00045996
2 1 2.81782e-15 2.81782e-11 0 0.0646606 5.76481e-06 0.00045996
3 5 0.5 0 0.300666 0.0188542 8.72662e-06 0.000248638
4 5 2.73904e-11 0.5 0.199334 -0.0188542 -8.72547e-06 -0.000248638
5 5 2.73904e-11 0.5 0.699334 0.0525627 4.50427e-06 0.0012948
6 5 0.5 0 0.800666 -0.0525627 -4.50432e-06 -0.0012948
