ITEM: TIMESTEP
0
ITEM: NUMBER OF ATOMS
6
ITEM: BOX BOUNDS xy xz yz pp pp pp
0.0000000000000000e+00 3.5488465600999999e+00 0.0000000000000000e+00
0.0000000000000000e+00 3.5484916754000002e+00 0.0000000000000000e+00
0.0000000000000000e+00 5.1215502490000002e+00 0.0000000000000000e+00
ITEM: ATOMS id type xs ys zs fx fy fz
1 1 0.5 0.5 0.5 -5.32332e-10 -9.47345e-10 0.00220815
2 1 0 2.8181e-11 0 5.32328e-10 -2.01394e-10 -0.00220815
3 5 0.5 0 0.300666 -2.16288e-10 2.00016e-09 -0.0768206
4 5 0 0.5 0.199334 2.16289e-10 -7.98645e-10 0.0768206
5 5 0 0.5 0.699334 9.46273e-10 -5.80415e-10 0.074759
6 5 0.5 0 0.800666 -9.46269e-10 5.27638e-10 -0.074759
