ITEM: TIMESTEP
0
ITEM: NUMBER OF ATOMS
6
ITEM: BOX BOUNDS xy xz yz pp pp pp
-5.1474170000000001e-04 3.5488465600999999e+00 0.0000000000000000e+00
0.0000000000000000e+00 3.5488465600999999e+00 -5.1474170000000001e-04
0.0000000000000000e+00 5.1474166643999997e+00 0.0000000000000000e+00
ITEM: ATOMS id type xs ys zs fx fy fz
1 1 0.5 0.5 0.5 -0.00131233 -3.98988e-10 -1.91352e-07
2 1 0 2.81782e-11 0 0.00131233 -7.19684e-10 1.91352e-07
3 5 0.5 0 0.300666 0.000392911 1.03763e-09 -0.0376155
4 5 6.20755e-12 0.5 0.199334 -0.000392911 1.36182e-10 0.0376155
5 5 2.02966e-11 0.5 0.699334 0.00109164 -3.65139e-10 0.0376162
6 5 0.5 0 0.800666 -0.00109164 3.09994e-10 -0.0376162
