ITEM: TIMESTEP
0
ITEM: NUMBER OF ATOMS
6
ITEM: BOX BOUNDS xy xz yz pp pp pp
0.0000000000000000e+00 3.5493638883999998e+00 0.0000000000000000e+00
0.0000000000000000e+00 3.5133580945000000e+00 5.1732830000000005e-04
0.0000000000000000e+00 5.1732830798000000e+00 0.0000000000000000e+00
ITEM: ATOMS id type xs ys zs fx fy fz
1 1 0.5 0.5 0.5 0.00131099 -4.71418e-10 0.226815
2 1 0 2.84628e-11 0 -0.00131099 -7.75442e-10 -0.226815
3 5 0.5 0 0.300666 -0.000406934 1.09269e-09 -0.150321
4 5 1 0.5 0.199334 0.000406934 1.92904e-10 0.150321
5 5 8.6368e-12 0.5 0.699334 -0.00104462 -3.59391e-10 -0.0572894
6 5 0.5 1 0.800666 0.00104462 3.20657e-10 0.0572894
