ITEM: TIMESTEP
0
ITEM: NUMBER OF ATOMS
6
ITEM: BOX BOUNDS xy xz yz pp pp pp
0.0000000000000000e+00 3.5311023273000002e+00 0.0000000000000000e+00
0.0000000000000000e+00 3.5488465600999999e+00 0.0000000000000000e+00
0.0000000000000000e+00 5.1732830798000000e+00 0.0000000000000000e+00
ITEM: ATOMS id type xs ys zs fx fy fz
1 1 0.5 0.5 0.5 -5.40474e-10 -3.89387e-10 -0.111204
2 1 1 2.81782e-11 0 5.4049e-10 -7.00399e-10 0.111204
3 5 0.5 0 0.300666 -2.16733e-10 1.03051e-09 0.0279656
4 5 1 0.5 0.199334 2.16735e-10 1.22018e-10 -0.0279656
5 5 0 0.5 0.699334 9.55683e-10 -3.68526e-10 0.0722493
6 5 0.5 0 0.800666 -9.55702e-10 3.05786e-10 -0.0722493
ITEM: TIMESTEP
13
ITEM: NUMBER OF ATOMS
6
ITEM: BOX BOUNDS xy xz yz pp pp pp
0.0000000000000000e+00 3.5311023273000002e+00 0.0000000000000000e+00
0.0000000000000000e+00 3.5488465600999999e+00 0.0000000000000000e+00
0.0000000000000000e+00 5.1732830798000000e+00 0.0000000000000000e+00
ITEM: ATOMS id type xs ys zs fx fy fz
1 1 0.5 0.5 0.499635 -2.81319e-12 2.05097e-13 -1.54833e-11
2 1 7.06102e-12 1.2557e-11 0.000364579 2.81641e-12 1.50008e-12 1.54902e-11
3 5 0.5 1.24751e-11 0.300225 9.55819e-13 -8.07688e-12 -3.57135e-11
4 5 7.09459e-12 0.5 0.199775 -9.53848e-13 -8.69924e-12 3.56829e-11
5 5 7.02727e-12 0.5 0.700366 5.94109e-12 7.96412e-12 3.64633e-11
6 5 0.5 1.01863e-11 0.799634 -5.94683e-12 7.10782e-12 -3.64418e-11
