ITEM: TIMESTEP
0
ITEM: NUMBER OF ATOMS
6
ITEM: BOX BOUNDS xy xz yz pp pp pp
0.0000000000000000e+00 3.5133580945000000e+00 0.0000000000000000e+00
0.0000000000000000e+00 3.5488465600999999e+00 0.0000000000000000e+00
0.0000000000000000e+00 5.1732830798000000e+00 0.0000000000000000e+00
ITEM: ATOMS id type xs ys zs fx fy fz
1 1 0.5 0.5 0.5 -5.80508e-10 -3.9409e-10 -0.226815
2 1 1 2.81782e-11 0 5.80531e-10 -6.94745e-10 0.226815
3 5 0.5 0 0.300666 -2.25335e-10 1.03812e-09 0.0572899
4 5 1 0.5 0.199334 2.25335e-10 1.19066e-10 -0.0572899
5 5 0 0.5 0.699334 9.93067e-10 -3.70726e-10 0.150321
6 5 0.5 0 0.800666 -9.93088e-10 3.02378e-10 -0.150321
ITEM: TIMESTEP
15
ITEM: NUMBER OF ATOMS
6
ITEM: BOX BOUNDS xy xz yz pp pp pp
0.0000000000000000e+00 3.5133580945000000e+00 0.0000000000000000e+00
0.0000000000000000e+00 3.5488465600999999e+00 0.0000000000000000e+00
0.0000000000000000e+00 5.1732830798000000e+00 0.0000000000000000e+00
ITEM: ATOMS id type xs ys zs fx fy fz
1 1 0.5 0.5 0.499285 8.04801e-13 -1.24047e-11 1.09576e-12
2 1 7.12027e-12 1.25027e-11 0.000714862 -8.10574e-13 -9.76374e-12 -1.08746e-12
3 5 0.5 1.21119e-11 0.299806 -5.26218e-13 9.97542e-12 -6.33216e-13
4 5 7.10448e-12 0.5 0.200194 5.29743e-13 2.9207e-12 6.34992e-13
5 5 7.12844e-12 0.5 0.701423 -1.57359e-12 4.47208e-12 -1.21392e-12
6 5 0.5 1.05624e-11 0.798577 1.57568e-12 4.80175e-12 1.20567e-12
