ITEM: TIMESTEP
0
ITEM: NUMBER OF ATOMS
6
ITEM: BOX BOUNDS xy xz yz pp pp pp
0.0000000000000000e+00 3.5488465600999999e+00 0.0000000000000000e+00
-5.2250159999999996e-04 3.5488465600999999e+00 0.0000000000000000e+00
0.0000000000000000e+00 5.2250159105999998e+00 -5.2250159999999996e-04
ITEM: ATOMS id type xs ys zs fx fy fz
1 1 0.5 0.5 0.5 -4.6963e-10 0.00125728 1.69769e-07
2 1 0 2.81782e-11 0 4.69633e-10 -0.00125728 -1.6977e-07
3 5 0.5 1 0.300666 -2.00133e-10 -0.000968873 0.0746727
4 5 0 0.5 0.199334 2.00134e-10 0.000968875 -0.0746727
5 5 0 0.5 0.699334 8.94077e-10 -0.000346903 -0.0746733
6 5 0.5 1 0.800666 -8.94083e-10 0.000346903 0.0746733
