ITEM: TIMESTEP
0
ITEM: NUMBER OF ATOMS
6
ITEM: BOX BOUNDS xy xz yz pp pp pp
-1.7389348100000000e-02 3.5488465600999999e+00 -1.7389348100000000e-02
0.0000000000000000e+00 3.5488465600999999e+00 0.0000000000000000e+00
0.0000000000000000e+00 5.1732830798000000e+00 0.0000000000000000e+00
ITEM: ATOMS id type xs ys zs fx fy fz
1 1 0.5 0.5 0.5 -3.3663e-10 -3.83734e-10 -0.000261785
2 1 1.38073e-13 2.81782e-11 0 3.36341e-10 -7.06354e-10 0.000261785
3 5 0.5 0 0.300666 -5.44486e-10 1.01759e-09 0.000139871
4 5 1 0.5 0.199334 5.40589e-10 1.30018e-10 -0.000139871
5 5 1 0.5 0.699334 1.36693e-09 -3.56404e-10 9.22281e-05
6 5 0.5 0 0.800666 -1.36274e-09 2.98884e-10 -9.22281e-05
