ITEM: TIMESTEP
0
ITEM: NUMBER OF ATOMS
6
ITEM: BOX BOUNDS xy xz yz pp pp pp
0.0000000000000000e+00 3.5839765922000004e+00 3.5484916800000002e-02
0.0000000000000000e+00 3.5488465600999999e+00 0.0000000000000000e+00
0.0000000000000000e+00 5.1732830798000000e+00 0.0000000000000000e+00
ITEM: ATOMS id type xs ys zs fx fy fz
1 1 0.5 0.5 0.5 1.95576e-10 -3.86665e-10 -0.00327105
2 1 1 2.81782e-11 0 8.96878e-10 -7.03521e-10 0.00327105
3 5 0.5 0 0.300666 -5.20725e-10 1.03251e-09 0.00111325
4 5 1 0.5 0.199334 5.85832e-10 1.11169e-10 -0.00111325
5 5 1 0.5 0.699334 7.99068e-10 -3.8562e-10 0.00178728
6 5 0.5 0 0.800666 -1.95663e-09 3.32132e-10 -0.00178728
