ITEM: TIMESTEP
0
ITEM: NUMBER OF ATOMS
6
ITEM: BOX BOUNDS xy xz yz pp pp pp
0.0000000000000000e+00 3.5846899104000003e+00 3.5488469999999999e-04
0.0000000000000000e+00 3.5488465600999999e+00 0.0000000000000000e+00
0.0000000000000000e+00 5.1732830798000000e+00 0.0000000000000000e+00
ITEM: ATOMS id type xs ys zs fx fy fz
1 1 0.5 0.5 0.5 -2.56337e-10 -3.75518e-10 0.20969
2 1 1 2.81782e-11 0 2.56329e-10 -7.14041e-10 -0.20969
3 5 0.5 0 0.300666 -5.26317e-10 1.00817e-09 -0.0516024
4 5 1 0.5 0.199334 5.26399e-10 1.2959e-10 0.0516024
5 5 1 0.5 0.699334 1.29866e-09 -3.62677e-10 -0.128035
6 5 0.5 0 0.800666 -1.29874e-09 3.14481e-10 0.128035
