ITEM: TIMESTEP
0
ITEM: NUMBER OF ATOMS
6
ITEM: BOX BOUNDS xy xz yz pp pp pp
0.0000000000000000e+00 3.5484916754000002e+00 0.0000000000000000e+00
0.0000000000000000e+00 3.5488465600999999e+00 0.0000000000000000e+00
0.0000000000000000e+00 5.1215502490000002e+00 0.0000000000000000e+00
ITEM: ATOMS id type xs ys zs fx fy fz
1 1 0.5 0.5 0.5 -1.0661e-09 -4.13531e-10 -0.00220815
2 1 0 2.81782e-11 0 1.06609e-09 -7.33658e-10 0.00220815
3 5 0.5 0 0.300666 -4.32691e-10 1.05277e-09 -0.074759
4 5 0 0.5 0.199334 4.32693e-10 1.47483e-10 0.074759
5 5 0 0.5 0.699334 1.89371e-09 -3.64184e-10 0.0768206
6 5 0.5 0 0.800666 -1.89371e-09 3.1112e-10 -0.0768206
