ITEM: TIMESTEP
0
ITEM: NUMBER OF ATOMS
6
ITEM: BOX BOUNDS xy xz yz pp pp pp
0.0000000000000000e+00 3.5484916754000002e+00 0.0000000000000000e+00
0.0000000000000000e+00 3.5665907929000000e+00 0.0000000000000000e+00
0.0000000000000000e+00 5.1732830798000000e+00 0.0000000000000000e+00
ITEM: ATOMS id type xs ys zs fx fy fz
1 1 0.5 0.5 0.5 -9.97792e-10 -3.42994e-10 -0.109105
2 1 0 2.8038e-11 0 9.97789e-10 -6.72195e-10 0.109105
3 5 0.5 0 0.300666 -4.05787e-10 9.90255e-10 0.0672346
4 5 0 0.5 0.199334 4.05787e-10 9.23021e-11 -0.0672346
5 5 0 0.5 0.699334 1.82673e-09 -3.70701e-10 0.0279172
6 5 0.5 0 0.800666 -1.82673e-09 3.03334e-10 -0.0279172
