ITEM: TIMESTEP
0
ITEM: NUMBER OF ATOMS
6
ITEM: BOX BOUNDS xy xz yz pp pp pp
0.0000000000000000e+00 3.6005793908999997e+00 0.0000000000000000e+00
0.0000000000000000e+00 3.5484916754000002e+00 5.1732830799999997e-02
0.0000000000000000e+00 5.1732830798000000e+00 0.0000000000000000e+00
ITEM: ATOMS id type xs ys zs fx fy fz
1 1 0.5 0.5 0.5 0.129433 -8.87598e-10 0.000341113
2 1 0 2.8181e-11 0 -0.129433 -2.03776e-10 -0.000341113
3 5 0.5 0 0.300666 -0.0376929 1.94403e-09 -0.000410102
4 5 1.57835e-12 0.5 0.199334 0.0376929 -7.95095e-10 0.000410102
5 5 1.57835e-12 0.5 0.699334 -0.105154 -5.7472e-10 0.00464284
6 5 0.5 0 0.800666 0.105154 5.17157e-10 -0.00464284
