ITEM: TIMESTEP
0
ITEM: NUMBER OF ATOMS
6
ITEM: BOX BOUNDS xy xz yz pp pp pp
0.0000000000000000e+00 3.5493638883999998e+00 0.0000000000000000e+00
0.0000000000000000e+00 3.5843350257000002e+00 5.1732830000000005e-04
0.0000000000000000e+00 5.1732830798000000e+00 0.0000000000000000e+00
ITEM: ATOMS id type xs ys zs fx fy fz
1 1 0.5 0.5 0.5 0.0012761 -3.02086e-10 -0.209691
2 1 0 2.78992e-11 0 -0.0012761 -6.40108e-10 0.209691
3 5 0.5 0 0.300666 -0.000352107 9.57843e-10 0.128035
4 5 1 0.5 0.199334 0.000352107 6.14508e-11 -0.128035
5 5 8.6368e-12 0.5 0.699334 -0.00105396 -3.74691e-10 0.0516029
6 5 0.5 0 0.800666 0.00105396 2.97589e-10 -0.0516029
