ITEM: TIMESTEP
0
ITEM: NUMBER OF ATOMS
6
ITEM: BOX BOUNDS xy xz yz pp pp pp
0.0000000000000000e+00 3.5488465600999999e+00 0.0000000000000000e+00
0.0000000000000000e+00 3.5493613017999999e+00 0.0000000000000000e+00
0.0000000000000000e+00 5.1474166643999997e+00 5.1474170000000001e-04
ITEM: ATOMS id type xs ys zs fx fy fz
1 1 0.5 0.5 0.5 -5.16837e-10 -0.00131233 1.91351e-07
2 1 0 2.81782e-11 0 5.16826e-10 0.00131233 -1.91351e-07
3 5 0.5 1 0.300666 -2.12065e-10 0.00109164 -0.0376162
4 5 0 0.5 0.199334 2.12067e-10 -0.00109164 0.0376162
5 5 0 0.5 0.699334 9.32719e-10 0.000392911 0.0376155
6 5 0.5 6.20755e-12 0.800666 -9.32708e-10 -0.000392911 -0.0376155
