ITEM: TIMESTEP
0
ITEM: NUMBER OF ATOMS
6
ITEM: BOX BOUNDS xy xz yz pp pp pp
0.0000000000000000e+00 3.5846934591999999e+00 0.0000000000000000e+00
0.0000000000000000e+00 3.5488465600999999e+00 0.0000000000000000e+00
0.0000000000000000e+00 5.1732830798000000e+00 0.0000000000000000e+00
ITEM: ATOMS id type xs ys zs fx fy fz
1 1 0.5 0.5 0.5 -8.48995e-10 -3.75409e-10 0.211724
2 1 0 2.81782e-11 0 8.48993e-10 -7.14132e-10 -0.211724
3 5 0.5 0 0.300666 -3.79938e-10 1.00792e-09 -0.0520941
4 5 0 0.5 0.199334 3.79941e-10 1.29742e-10 0.0520941
5 5 0 0.5 0.699334 1.69949e-09 -3.62436e-10 -0.12922
6 5 0.5 0 0.800666 -1.69949e-09 3.14322e-10 0.12922
