ITEM: TIMESTEP
0
ITEM: NUMBER OF ATOMS
6
ITEM: BOX BOUNDS xy xz yz pp pp pp
0.0000000000000000e+00 3.5492032191999998e+00 3.5665909999999998e-04
0.0000000000000000e+00 3.5665907929000000e+00 0.0000000000000000e+00
0.0000000000000000e+00 5.1732830798000000e+00 0.0000000000000000e+00
ITEM: ATOMS id type xs ys zs fx fy fz
1 1 0.5 0.5 0.5 -3.332e-10 -3.42919e-10 -0.106923
2 1 1 2.8038e-11 0 3.33198e-10 -6.72262e-10 0.106923
3 5 0.5 0 0.300666 -5.40871e-10 9.90217e-10 0.0666961
4 5 1 0.5 0.199334 5.40945e-10 9.22387e-11 -0.0666961
5 5 1 0.5 0.699334 1.35681e-09 -3.70872e-10 0.0265208
6 5 0.5 0 0.800666 -1.35688e-09 3.03598e-10 -0.0265208
