ITEM: TIMESTEP
0
ITEM: NUMBER OF ATOMS
6
ITEM: BOX BOUNDS xy xz yz pp pp pp
-3.5488469999999999e-04 3.5488465600999999e+00 -3.5488469999999999e-04
0.0000000000000000e+00 3.5488465600999999e+00 0.0000000000000000e+00
0.0000000000000000e+00 5.1732830798000000e+00 0.0000000000000000e+00
ITEM: ATOMS id type xs ys zs fx fy fz
1 1 0.5 0.5 0.5 -6.61581e-10 -3.84827e-10 -1.09042e-07
2 1 2.88658e-15 2.81782e-11 0 6.61577e-10 -7.05414e-10 1.09042e-07
3 5 0.5 0 0.300666 1.2965e-10 1.02294e-09 5.22681e-06
4 5 1.40905e-11 0.5 0.199334 -1.29725e-10 1.24824e-10 -5.22681e-06
5 5 1.40905e-11 0.5 0.699334 4.70487e-10 -3.66431e-10 -5.13012e-06
6 5 0.5 0 0.800666 -4.70407e-10 3.08901e-10 5.13012e-06
