ITEM: TIMESTEP
0
ITEM: NUMBER OF ATOMS
6
ITEM: BOX BOUNDS xy xz yz pp pp pp
-5.1732830000000005e-04 3.5488465600999999e+00 0.0000000000000000e+00
0.0000000000000000e+00 3.5488465600999999e+00 -5.1732830000000005e-04
0.0000000000000000e+00 5.1732830798000000e+00 0.0000000000000000e+00
ITEM: ATOMS id type xs ys zs fx fy fz
1 1 0.5 0.5 0.5 -0.0012929 -3.84731e-10 -1.83896e-07
2 1 0 2.81782e-11 0 0.0012929 -7.05499e-10 1.83896e-07
3 5 0.5 0 0.300666 0.000377223 1.02301e-09 5.26813e-06
4 5 5.45231e-12 0.5 0.199334 -0.000377223 1.24753e-10 -5.26813e-06
5 5 1 0.5 0.699334 0.00105114 -3.66454e-10 -4.65056e-06
6 5 0.5 0 0.800666 -0.00105114 3.08921e-10 4.65056e-06
