ITEM: TIMESTEP
0
ITEM: NUMBER OF ATOMS
6
ITEM: BOX BOUNDS xy xz yz pp pp pp
0.0000000000000000e+00 3.5492014448000000e+00 0.0000000000000000e+00
0.0000000000000000e+00 3.5665907929000000e+00 0.0000000000000000e+00
0.0000000000000000e+00 5.1732830798000000e+00 0.0000000000000000e+00
ITEM: ATOMS id type xs ys zs fx fy fz
1 1 0.5 0.5 0.5 1.14353e-14 -3.42805e-10 -0.104743
2 1 0 2.8038e-11 0 -1.09357e-14 -6.7238e-10 0.104743
3 5 0.5 0 0.300666 3.10862e-15 9.8996e-10 0.0661582
4 5 0 0.5 0.199334 -3.10862e-15 9.23999e-11 -0.0661582
5 5 0 0.5 0.699334 -1.64313e-14 -3.70625e-10 0.0251265
6 5 0.5 0 0.800666 1.59872e-14 3.03456e-10 -0.0251265
