ITEM: TIMESTEP
0
ITEM: NUMBER OF ATOMS
6
ITEM: BOX BOUNDS xy xz yz pp pp pp
0.0000000000000000e+00 3.5492014448000000e+00 3.5488469999999999e-04
0.0000000000000000e+00 3.5488465600999999e+00 0.0000000000000000e+00
0.0000000000000000e+00 5.1215502490000002e+00 0.0000000000000000e+00
ITEM: ATOMS id type xs ys zs fx fy fz
1 1 0.5 0.5 0.5 -3.72186e-10 -4.13448e-10 -1.10363e-07
2 1 1 2.81782e-11 0 3.72166e-10 -7.33748e-10 1.10363e-07
3 5 0.5 0 0.300666 -5.53873e-10 1.05273e-09 -0.0753512
4 5 1 0.5 0.199334 5.53954e-10 1.47424e-10 0.0753512
5 5 1 0.5 0.699334 1.39871e-09 -3.64356e-10 0.0753513
6 5 0.5 0 0.800666 -1.39877e-09 3.11397e-10 -0.0753513
