ITEM: TIMESTEP
0
ITEM: NUMBER OF ATOMS
6
ITEM: BOX BOUNDS xy xz yz pp pp pp
0.0000000000000000e+00 3.5488465600999999e+00 0.0000000000000000e+00
0.0000000000000000e+00 3.5133580945000000e+00 0.0000000000000000e+00
0.0000000000000000e+00 5.1727657515000001e+00 0.0000000000000000e+00
ITEM: ATOMS id type xs ys zs fx fy fz
1 1 0.5 0.5 0.5 -5.08005e-10 -4.71719e-10 0.226844
2 1 0 2.84628e-11 0 5.08005e-10 -7.75749e-10 -0.226844
3 5 0.5 0 0.300666 -2.19381e-10 1.09301e-09 -0.151154
4 5 0 0.5 0.199334 2.19383e-10 1.93162e-10 0.151154
5 5 0 0.5 0.699334 9.34404e-10 -3.59372e-10 -0.056587
6 5 0.5 1 0.800666 -9.34405e-10 3.20671e-10 0.056587
