ITEM: TIMESTEP
0
ITEM: NUMBER OF ATOMS
6
ITEM: BOX BOUNDS xy xz yz pp pp pp
0.0000000000000000e+00 3.5311023273000002e+00 0.0000000000000000e+00
0.0000000000000000e+00 3.5492014448000000e+00 0.0000000000000000e+00
0.0000000000000000e+00 5.1732830798000000e+00 0.0000000000000000e+00
ITEM: ATOMS id type xs ys zs fx fy fz
1 1 0.5 0.5 0.5 -5.40412e-10 1.15167e-10 -0.113384
2 1 1 2.81754e-11 0 5.4043e-10 -1.20342e-09 0.113384
3 5 0.5 0 0.300666 -2.16622e-10 1.03733e-10 0.0293453
4 5 1 0.5 0.199334 2.16621e-10 1.04745e-09 -0.0293453
5 5 0 0.5 0.699334 9.55538e-10 -1.55195e-10 0.0728016
6 5 0.5 0 0.800666 -9.55559e-10 9.22646e-11 -0.0728016
