ITEM: TIMESTEP
0
ITEM: NUMBER OF ATOMS
6
ITEM: BOX BOUNDS xy xz yz pp pp pp
0.0000000000000000e+00 3.5662341338000001e+00 0.0000000000000000e+00
0.0000000000000000e+00 3.5488465600999999e+00 0.0000000000000000e+00
0.0000000000000000e+00 5.1732830798000000e+00 0.0000000000000000e+00
ITEM: ATOMS id type xs ys zs fx fy fz
1 1 0.5 0.5 0.5 -9.27314e-10 -3.80196e-10 0.104815
2 1 0 2.81782e-11 0 9.27317e-10 -7.09979e-10 -0.104815
3 5 0.5 0 0.300666 -3.9907e-10 1.01572e-09 -0.026002
4 5 0 0.5 0.199334 3.99068e-10 1.27258e-10 0.026002
5 5 0 0.5 0.699334 1.77093e-09 -3.64511e-10 -0.0654088
6 5 0.5 0 0.800666 -1.77093e-09 3.11713e-10 0.0654088
