ITEM: TIMESTEP
0
ITEM: NUMBER OF ATOMS
6
ITEM: BOX BOUNDS xy xz yz pp pp pp
0.0000000000000000e+00 3.5492014448000000e+00 0.0000000000000000e+00
0.0000000000000000e+00 3.5488465600999999e+00 0.0000000000000000e+00
0.0000000000000000e+00 5.2250159105999998e+00 0.0000000000000000e+00
ITEM: ATOMS id type xs ys zs fx fy fz
1 1 0.5 0.5 0.5 1.12133e-14 -3.56822e-10 0.0021564
2 1 0 2.81782e-11 0 -1.65423e-14 -6.76885e-10 -0.0021564
3 5 0.5 0 0.300666 4.94049e-15 9.94194e-10 0.0741732
4 5 0 0.5 0.199334 -3.91354e-15 1.02027e-10 -0.0741732
5 5 0 0.5 0.699334 -1.70836e-14 -3.69602e-10 -0.075976
6 5 0.5 0 0.800666 2.13995e-14 3.07089e-10 0.075976
