ITEM: TIMESTEP
0
ITEM: NUMBER OF ATOMS
6
ITEM: BOX BOUNDS xy xz yz pp pp pp
0.0000000000000000e+00 3.5484916754000002e+00 0.0000000000000000e+00
0.0000000000000000e+00 3.5747129754999998e+00 0.0000000000000000e+00
0.0000000000000000e+00 5.1732830798000000e+00 2.5866415399999999e-02
ITEM: ATOMS id type xs ys zs fx fy fz
1 1 0.5 0.5 0.5 -1.00405e-09 -0.0646693 -0.00172189
2 1 0 2.81782e-11 0 1.00405e-09 0.0646693 0.00172189
3 5 0.5 1.32999e-11 0.300666 -4.16516e-10 0.0525603 -0.00074946
4 5 0 0.5 0.199334 4.16515e-10 -0.0525603 0.00074946
5 5 0 0.5 0.699334 1.84072e-09 0.0188679 0.00114076
6 5 0.5 1.32999e-11 0.800666 -1.84073e-09 -0.0188679 -0.00114076
