ITEM: TIMESTEP
0
ITEM: NUMBER OF ATOMS
6
ITEM: BOX BOUNDS xy xz yz pp pp pp
0.0000000000000000e+00 3.5848523540000001e+00 0.0000000000000000e+00
0.0000000000000000e+00 3.5488465600999999e+00 5.1732830000000005e-04
0.0000000000000000e+00 5.1732830798000000e+00 0.0000000000000000e+00
ITEM: ATOMS id type xs ys zs fx fy fz
1 1 0.5 0.5 0.5 0.00120506 -3.75499e-10 0.20969
2 1 0 2.81782e-11 0 -0.00120506 -7.14052e-10 -0.20969
3 5 0.5 0 0.300666 -0.000305023 1.00806e-09 -0.0516023
4 5 1 0.5 0.199334 0.000305023 1.29689e-10 0.0516023
5 5 8.55129e-12 0.5 0.699334 -0.000894764 -3.62472e-10 -0.128034
6 5 0.5 0 0.800666 0.000894764 3.14273e-10 0.128034
