ITEM: TIMESTEP
0
ITEM: NUMBER OF ATOMS
6
ITEM: BOX BOUNDS xy xz yz pp pp pp
0.0000000000000000e+00 3.5752303037999997e+00 0.0000000000000000e+00
0.0000000000000000e+00 3.5488465600999999e+00 2.6383743700000000e-02
0.0000000000000000e+00 5.1732830798000000e+00 0.0000000000000000e+00
ITEM: ATOMS id type xs ys zs fx fy fz
1 1 0.5 0.5 0.5 0.0659545 -3.84766e-10 -0.000478433
2 1 0 2.81782e-11 0 -0.0659545 -7.05369e-10 0.000478433
3 5 0.5 0 0.300666 -0.0192309 1.023e-09 0.000258413
4 5 1 0.5 0.199334 0.0192309 1.24722e-10 -0.000258413
5 5 1 0.5 0.699334 -0.0536142 -3.66466e-10 0.00134726
6 5 0.5 0 0.800666 0.0536142 3.08874e-10 -0.00134726
