ITEM: TIMESTEP
0
ITEM: NUMBER OF ATOMS
6
ITEM: BOX BOUNDS xy xz yz pp pp pp
0.0000000000000000e+00 3.5133580945000000e+00 0.0000000000000000e+00
0.0000000000000000e+00 3.5488465600999999e+00 0.0000000000000000e+00
0.0000000000000000e+00 5.1738004081000000e+00 0.0000000000000000e+00
ITEM: ATOMS id type xs ys zs fx fy fz
1 1 0.5 0.5 0.5 -5.80187e-10 -3.93798e-10 -0.226787
2 1 1 2.81782e-11 0 5.80199e-10 -6.94477e-10 0.226787
3 5 0.5 0 0.300666 -2.25261e-10 1.03783e-09 0.0579927
4 5 1 0.5 0.199334 2.25264e-10 1.18839e-10 -0.0579927
5 5 0 0.5 0.699334 9.92783e-10 -3.70751e-10 0.149488
6 5 0.5 0 0.800666 -9.92796e-10 3.02362e-10 -0.149488
