ITEM: TIMESTEP
0
ITEM: NUMBER OF ATOMS
6
ITEM: BOX BOUNDS xy xz yz pp pp pp
0.0000000000000000e+00 3.5493638883999998e+00 0.0000000000000000e+00
-2.5866415399999999e-02 3.5488465600999999e+00 5.1732830000000005e-04
0.0000000000000000e+00 5.1732830798000000e+00 -2.5866415399999999e-02
ITEM: ATOMS id type xs ys zs fx fy fz
1 1 0.5 0.5 0.5 0.00129292 0.0646606 0.000459667
2 1 0 2.81782e-11 0 -0.00129292 -0.0646606 -0.000459667
3 5 0.5 1 0.300666 -0.000377269 -0.0525627 -0.00129467
4 5 1 0.5 0.199334 0.000377269 0.0525627 0.00129467
5 5 8.6368e-12 0.5 0.699334 -0.00105106 -0.0188542 -0.000248062
6 5 0.5 1 0.800666 0.00105106 0.0188542 0.000248062
