ITEM: TIMESTEP
0
ITEM: NUMBER OF ATOMS
6
ITEM: BOX BOUNDS xy xz yz pp pp pp
0.0000000000000000e+00 3.5492014448000000e+00 0.0000000000000000e+00
0.0000000000000000e+00 3.6005793908999997e+00 0.0000000000000000e+00
0.0000000000000000e+00 5.1732830798000000e+00 5.1732830799999997e-02
ITEM: ATOMS id type xs ys zs fx fy fz
1 1 0.5 0.5 0.5 8.77076e-15 -0.129398 0.00402087
2 1 0 2.81782e-11 0 -1.34337e-14 0.129398 -0.00402087
3 5 0.5 1 0.300666 3.9968e-15 0.105164 -0.00573233
4 5 0 0.5 0.199334 -6.16174e-15 -0.105164 0.00573233
5 5 0 0.5 0.699334 -1.00128e-14 0.0376379 -0.00236441
6 5 0.5 1 0.800666 1.77358e-14 -0.0376379 0.00236441
