ITEM: TIMESTEP
0
ITEM: NUMBER OF ATOMS
6
ITEM: BOX BOUNDS xy xz yz pp pp pp
0.0000000000000000e+00 3.5488465600999999e+00 0.0000000000000000e+00
0.0000000000000000e+00 3.5488465600999999e+00 0.0000000000000000e+00
0.0000000000000000e+00 5.1474166643999997e+00 0.0000000000000000e+00
ITEM: ATOMS id type xs ys zs fx fy fz
1 1 0.5 0.5 0.5 -5.16827e-10 -3.98988e-10 1.89779e-15
2 1 0 2.81782e-11 0 5.16823e-10 -7.19676e-10 5.66214e-15
3 5 0.5 0 0.300666 -2.12067e-10 1.03763e-09 -0.0376156
4 5 0 0.5 0.199334 2.12066e-10 1.36177e-10 0.0376156
5 5 0 0.5 0.699334 9.32711e-10 -3.65132e-10 0.0376156
6 5 0.5 0 0.800666 -9.32706e-10 3.09991e-10 -0.0376156
ITEM: TIMESTEP
7
ITEM: NUMBER OF ATOMS
6
ITEM: BOX BOUNDS xy xz yz pp pp pp
0.0000000000000000e+00 3.5488465600999999e+00 0.0000000000000000e+00
0.0000000000000000e+00 3.5488465600999999e+00 0.0000000000000000e+00
0.0000000000000000e+00 5.1474166643999997e+00 0.0000000000000000e+00
ITEM: ATOMS id type xs ys zs fx fy fz
1 1 0.5 0.5 0.5 -1.7526e-12 -1.74225e-12 1.04932e-11
2 1 6.98197e-12 1.24964e-11 4.16029e-14 1.74494e-12 -5.22544e-12 -1.04983e-11
3 5 0.5 1.22404e-11 0.299329 -9.07691e-13 -1.88698e-12 -3.08947e-12
4 5 7.01181e-12 0.5 0.200671 9.06775e-13 -3.38222e-12 3.1794e-12
5 5 7.07221e-12 0.5 0.700671 -7.85219e-13 7.09854e-12 -3.19145e-12
6 5 0.5 1.05555e-11 0.799329 7.95225e-13 5.1388e-12 3.10767e-12
