ITEM: TIMESTEP
0
ITEM: NUMBER OF ATOMS
6
ITEM: BOX BOUNDS xy xz yz pp pp pp
-5.1732830799999997e-02 3.5488465600999999e+00 0.0000000000000000e+00
0.0000000000000000e+00 3.5488465600999999e+00 -5.1732830799999997e-02
0.0000000000000000e+00 5.1732830798000000e+00 0.0000000000000000e+00
ITEM: ATOMS id type xs ys zs fx fy fz
1 1 0.5 0.5 0.5 -0.129416 -3.84836e-10 -0.00184073
2 1 0 2.81782e-11 0 0.129416 -7.05022e-10 0.00184073
3 5 0.5 0 0.300666 0.0376654 1.02297e-09 0.000978266
4 5 1 0.5 0.199334 -0.0376654 1.24645e-10 -0.000978266
5 5 1 0.5 0.699334 0.105159 -3.66494e-10 0.00518787
6 5 0.5 0 0.800666 -0.105159 3.08734e-10 -0.00518787
ITEM: TIMESTEP
23
ITEM: NUMBER OF ATOMS
6
ITEM: BOX BOUNDS xy xz yz pp pp pp
-5.1732830799999997e-02 3.5488465600999999e+00 0.0000000000000000e+00
0.0000000000000000e+00 3.5488465600999999e+00 -5.1732830799999997e-02
0.0000000000000000e+00 5.1732830798000000e+00 0.0000000000000000e+00
ITEM: ATOMS id type xs ys zs fx fy fz
1 1 0.497435 0.5 0.500027 4.86278e-14 -1.69986e-12 -1.36557e-13
2 1 0.00256452 1.21172e-11 0.999973 -3.19744e-14 -1.75168e-12 1.23457e-13
3 5 0.500323 1.20236e-11 0.300687 -4.92939e-14 -1.32545e-12 -4.45199e-14
4 5 0.999677 0.5 0.199313 4.80727e-14 -1.20629e-12 2.63262e-14
5 5 0.000185962 0.5 0.699384 2.59237e-14 2.98483e-12 2.59792e-14
6 5 0.499814 1.1083e-11 0.800616 -4.38833e-14 2.99566e-12 7.36911e-15
