ITEM: TIMESTEP
0
ITEM: NUMBER OF ATOMS
6
ITEM: BOX BOUNDS xy xz yz pp pp pp
-3.5133579999999998e-04 3.5488465600999999e+00 -3.5133579999999998e-04
0.0000000000000000e+00 3.5133580945000000e+00 0.0000000000000000e+00
0.0000000000000000e+00 5.1732830798000000e+00 0.0000000000000000e+00
ITEM: ATOMS id type xs ys zs fx fy fz
1 1 0.5 0.5 0.5 -5.07608e-10 -4.71456e-10 0.226815
2 1 2.81782e-15 2.84628e-11 0 5.07609e-10 -7.7542e-10 -0.226815
3 5 0.5 0 0.300666 -2.1927e-10 1.0926e-09 -0.150321
4 5 1.40891e-15 0.5 0.199334 2.19179e-10 1.93012e-10 0.150321
5 5 1.40891e-15 0.5 0.699334 9.341e-10 -3.59268e-10 -0.0572898
6 5 0.5 1 0.800666 -9.34012e-10 3.20531e-10 0.0572898
