ITEM: TIMESTEP
0
ITEM: NUMBER OF ATOMS
6
ITEM: BOX BOUNDS xy xz yz pp pp pp
0.0000000000000000e+00 3.5493613017999999e+00 0.0000000000000000e+00
0.0000000000000000e+00 3.5488465600999999e+00 5.1474170000000001e-04
0.0000000000000000e+00 5.1474166643999997e+00 0.0000000000000000e+00
ITEM: ATOMS id type xs ys zs fx fy fz
1 1 0.5 0.5 0.5 0.00131233 -3.98986e-10 -1.91351e-07
2 1 0 2.81782e-11 0 -0.00131233 -7.19682e-10 1.91351e-07
3 5 0.5 0 0.300666 -0.000392911 1.03763e-09 -0.0376155
4 5 1 0.5 0.199334 0.000392911 1.36179e-10 0.0376155
5 5 1 0.5 0.699334 -0.00109164 -3.65133e-10 0.0376162
6 5 0.5 0 0.800666 0.00109164 3.09989e-10 -0.0376162
