ITEM: TIMESTEP
0
ITEM: NUMBER OF ATOMS
6
ITEM: BOX BOUNDS xy xz yz pp pp pp
0.0000000000000000e+00 3.5843350256999997e+00 3.5488465599999998e-02
0.0000000000000000e+00 3.5488465600999999e+00 0.0000000000000000e+00
0.0000000000000000e+00 5.1738004081000000e+00 0.0000000000000000e+00
ITEM: ATOMS id type xs ys zs fx fy fz
1 1 0.5 0.5 0.5 -5.09524e-10 -3.80408e-10 -0.00108985
2 1 1 2.81782e-11 0 5.10103e-10 -7.08622e-10 0.00108985
3 5 0.5 0 0.300666 -2.11032e-10 1.03147e-09 0.00131737
4 5 1 0.5 0.199334 2.18973e-10 1.15108e-10 -0.00131737
5 5 1 0.5 0.699334 9.23398e-10 -3.78406e-10 -0.000351816
6 5 0.5 0 0.800666 -9.31921e-10 3.20867e-10 0.000351815
