ITEM: TIMESTEP
0
ITEM: NUMBER OF ATOMS
6
ITEM: BOX BOUNDS xy xz yz pp pp pp
0.0000000000000000e+00 3.5316196556000001e+00 0.0000000000000000e+00
0.0000000000000000e+00 3.5488465600999999e+00 5.1732830000000005e-04
0.0000000000000000e+00 5.1732830798000000e+00 0.0000000000000000e+00
ITEM: ATOMS id type xs ys zs fx fy fz
1 1 0.5 0.5 0.5 0.00133971 -3.8939e-10 -0.111204
2 1 1 2.81782e-11 0 -0.00133971 -7.00391e-10 0.111204
3 5 0.5 0 0.300666 -0.000415396 1.03051e-09 0.0279657
4 5 1 0.5 0.199334 0.000415397 1.22008e-10 -0.0279657
5 5 8.6802e-12 0.5 0.699334 -0.00113087 -3.68523e-10 0.0722498
6 5 0.5 0 0.800666 0.00113087 3.05788e-10 -0.0722498
