ITEM: TIMESTEP
0
ITEM: NUMBER OF ATOMS
6
ITEM: BOX BOUNDS xy xz yz pp pp pp
0.0000000000000000e+00 3.5488465600999999e+00 0.0000000000000000e+00
0.0000000000000000e+00 3.5130067587000000e+00 0.0000000000000000e+00
0.0000000000000000e+00 5.1732830798000000e+00 0.0000000000000000e+00
ITEM: ATOMS id type xs ys zs fx fy fz
1 1 0.5 0.5 0.5 -5.07754e-10 -4.72307e-10 0.22915
2 1 0 2.84656e-11 0 5.07758e-10 -7.7616e-10 -0.22915
3 5 0.5 0 0.300666 -2.19411e-10 1.09341e-09 -0.151927
4 5 0 0.5 0.199334 2.19409e-10 1.93606e-10 0.151927
5 5 0 0.5 0.699334 9.34289e-10 -3.59336e-10 -0.0578838
6 5 0.5 1 0.800666 -9.34293e-10 3.20784e-10 0.0578838
