ITEM: TIMESTEP
0
ITEM: NUMBER OF ATOMS
6
ITEM: BOX BOUNDS xy xz yz pp pp pp
0.0000000000000000e+00 3.5747129754999998e+00 0.0000000000000000e+00
0.0000000000000000e+00 3.5488465600999999e+00 2.5866415399999999e-02
0.0000000000000000e+00 5.1732830798000000e+00 0.0000000000000000e+00
ITEM: ATOMS id type xs ys zs fx fy fz
1 1 0.5 0.5 0.5 0.0646606 -3.84749e-10 -0.00045985
2 1 0 2.81782e-11 0 -0.0646606 -7.05386e-10 0.00045985
3 5 0.5 0 0.300666 -0.0188542 1.02299e-09 0.000248581
4 5 1 0.5 0.199334 0.0188542 1.24731e-10 -0.000248581
5 5 1 0.5 0.699334 -0.0525627 -3.66466e-10 0.00129476
6 5 0.5 0 0.800666 0.0525627 3.08875e-10 -0.00129476
ITEM: TIMESTEP
20
ITEM: NUMBER OF ATOMS
6
ITEM: BOX BOUNDS xy xz yz pp pp pp
0.0000000000000000e+00 3.5747129754999998e+00 0.0000000000000000e+00
0.0000000000000000e+00 3.5488465600999999e+00 2.5866415399999999e-02
0.0000000000000000e+00 5.1732830798000000e+00 0.0000000000000000e+00
ITEM: ATOMS id type xs ys zs fx fy fz
1 1 0.501278 0.5 0.500007 1.671e-11 -2.5151e-12 -2.56895e-12
2 1 0.998722 1.23033e-11 0.999993 -1.67121e-11 -2.51403e-12 2.57595e-12
3 5 0.499836 1.21643e-11 0.300671 1.40239e-11 -1.94427e-12 -6.28142e-12
4 5 0.000163973 0.5 0.199329 -1.40221e-11 -1.94319e-12 6.29274e-12
5 5 0.999906 0.5 0.699347 1.24782e-11 4.45638e-12 6.8745e-13
6 5 0.500094 1.07554e-11 0.800653 -1.24792e-11 4.4582e-12 -7.06546e-13
