ITEM: TIMESTEP
0
ITEM: NUMBER OF ATOMS
6
ITEM: BOX BOUNDS xy xz yz pp pp pp
0.0000000000000000e+00 3.5492014448000000e+00 0.0000000000000000e+00
0.0000000000000000e+00 3.5311023273000002e+00 0.0000000000000000e+00
0.0000000000000000e+00 5.1732830798000000e+00 0.0000000000000000e+00
ITEM: ATOMS id type xs ys zs fx fy fz
1 1 0.5 0.5 0.5 1.29896e-14 -4.27485e-10 0.113384
2 1 0 2.83198e-11 0 -8.71525e-15 -7.39966e-10 -0.113384
3 5 0.5 0 0.300666 9.71445e-16 1.05701e-09 -0.0728016
4 5 0 0.5 0.199334 -2.96985e-15 1.58343e-10 0.0728016
5 5 0 0.5 0.699334 -1.81001e-14 -3.6261e-10 -0.0293453
6 5 0.5 1 0.800666 1.61815e-14 3.14712e-10 0.0293453
