ITEM: TIMESTEP
0
ITEM: NUMBER OF ATOMS
6
ITEM: BOX BOUNDS xy xz yz pp pp pp
0.0000000000000000e+00 3.5488465600999999e+00 0.0000000000000000e+00
0.0000000000000000e+00 3.5311023273000002e+00 0.0000000000000000e+00
0.0000000000000000e+00 5.1732830798000000e+00 0.0000000000000000e+00
ITEM: ATOMS id type xs ys zs fx fy fz
1 1 0.5 0.5 0.5 -5.04471e-10 -4.27576e-10 0.111204
2 1 0 2.83198e-11 0 5.04468e-10 -7.39868e-10 -0.111204
3 5 0.5 0 0.300666 -2.1358e-10 1.05716e-09 -0.0722493
4 5 0 0.5 0.199334 2.13581e-10 1.58285e-10 0.0722493
5 5 0 0.5 0.699334 9.26788e-10 -3.62656e-10 -0.0279656
6 5 0.5 1 0.800666 -9.26785e-10 3.14655e-10 0.0279656
ITEM: TIMESTEP
13
ITEM: NUMBER OF ATOMS
6
ITEM: BOX BOUNDS xy xz yz pp pp pp
0.0000000000000000e+00 3.5488465600999999e+00 0.0000000000000000e+00
0.0000000000000000e+00 3.5311023273000002e+00 0.0000000000000000e+00
0.0000000000000000e+00 5.1732830798000000e+00 0.0000000000000000e+00
ITEM: ATOMS id type xs ys zs fx fy fz
1 1 0.5 0.5 0.500365 -2.51799e-12 5.21601e-13 1.58251e-11
2 1 7.02771e-12 1.23874e-11 0.999635 2.51482e-12 4.10057e-12 -1.58261e-11
3 5 0.5 1.23799e-11 0.299634 8.89955e-13 -6.70327e-12 -3.65511e-11
4 5 7.05874e-12 0.5 0.200366 -8.92147e-13 -1.17615e-11 3.65483e-11
5 5 6.9964e-12 0.5 0.699775 5.44498e-12 7.57318e-12 3.5475e-11
6 5 0.5 1.06003e-11 0.800225 -5.44109e-12 6.26238e-12 -3.54731e-11
