ITEM: TIMESTEP
0
ITEM: NUMBER OF ATOMS
6
ITEM: BOX BOUNDS xy xz yz pp pp pp
-3.5133580900000003e-02 3.5488465600999999e+00 -3.5133580900000003e-02
0.0000000000000000e+00 3.5488465600999999e+00 0.0000000000000000e+00
0.0000000000000000e+00 5.1732830798000000e+00 0.0000000000000000e+00
ITEM: ATOMS id type xs ys zs fx fy fz
1 1 0.5 0.5 0.5 -3.32201e-10 -3.82519e-10 -0.00106829
2 1 2.78964e-13 2.81782e-11 0 3.31633e-10 -7.07086e-10 0.00106829
3 5 0.5 0 0.300666 -5.43404e-10 1.01198e-09 0.000556539
4 5 1 0.5 0.199334 5.35543e-10 1.35122e-10 -0.000556539
5 5 1 0.5 0.699334 1.36509e-09 -3.46318e-10 0.000390441
6 5 0.5 0 0.800666 -1.35666e-09 2.88826e-10 -0.000390441
