ITEM: TIMESTEP
0
ITEM: NUMBER OF ATOMS
6
ITEM: BOX BOUNDS xy xz yz pp pp pp
0.0000000000000000e+00 3.5662341338000001e+00 1.7742458400000001e-02
0.0000000000000000e+00 3.5488465600999999e+00 0.0000000000000000e+00
0.0000000000000000e+00 5.1732830798000000e+00 0.0000000000000000e+00
ITEM: ATOMS id type xs ys zs fx fy fz
1 1 0.5 0.5 0.5 -1.0084e-09 -3.81055e-10 -0.00245413
2 1 1 2.81782e-11 0 1.00868e-09 -7.09026e-10 0.00245413
3 5 0.5 0 0.300666 -4.17994e-10 1.0319e-09 0.000690843
4 5 1 0.5 0.199334 4.21972e-10 1.15805e-10 -0.000690843
5 5 1 0.5 0.699334 1.84271e-09 -3.78088e-10 0.0014857
6 5 0.5 0 0.800666 -1.84697e-09 3.20464e-10 -0.0014857
