ITEM: TIMESTEP
0
ITEM: NUMBER OF ATOMS
6
ITEM: BOX BOUNDS xy xz yz pp pp pp
0.0000000000000000e+00 3.5488465600999999e+00 0.0000000000000000e+00
0.0000000000000000e+00 3.5747129754999998e+00 0.0000000000000000e+00
0.0000000000000000e+00 5.1732830798000000e+00 2.5866415399999999e-02
ITEM: ATOMS id type xs ys zs fx fy fz
1 1 0.5 0.5 0.5 -5.01258e-10 -0.0646606 0.000459851
2 1 0 2.81782e-11 0 5.01253e-10 0.0646606 -0.00045985
3 5 0.5 1.32999e-11 0.300666 -2.08082e-10 0.0525627 -0.00129476
4 5 0 0.5 0.199334 2.08083e-10 -0.0525627 0.00129476
5 5 0 0.5 0.699334 9.19656e-10 0.0188541 -0.000248581
6 5 0.5 1.33e-11 0.800666 -9.19655e-10 -0.0188542 0.000248581
ITEM: TIMESTEP
20
ITEM: NUMBER OF ATOMS
6
ITEM: BOX BOUNDS xy xz yz pp pp pp
0.0000000000000000e+00 3.5488465600999999e+00 0.0000000000000000e+00
0.0000000000000000e+00 3.5747129754999998e+00 0.0000000000000000e+00
0.0000000000000000e+00 5.1732830798000000e+00 2.5866415399999999e-02
ITEM: ATOMS id type xs ys zs fx fy fz
1 1 0.5 0.498722 0.499993 2.10942e-15 -1.92482e-11 2.52921e-12
2 1 7.04467e-12 0.0012783 6.79058e-06 -4.996e-16 1.42057e-11 -2.62357e-12
3 5 0.5 9.41359e-05 0.300653 -4.71845e-16 -1.44243e-11 -6.82371e-13
4 5 7.04465e-12 0.499906 0.199347 1.38778e-16 1.05144e-11 7.08711e-13
5 5 7.04464e-12 0.500164 0.699329 -1.84575e-15 -9.54734e-12 6.31273e-12
6 5 0.5 0.999836 0.800671 9.4369e-16 1.84997e-11 -6.24632e-12
