ITEM: TIMESTEP
0
ITEM: NUMBER OF ATOMS
6
ITEM: BOX BOUNDS xy xz yz pp pp pp
0.0000000000000000e+00 3.5488465600999999e+00 0.0000000000000000e+00
0.0000000000000000e+00 3.5843350257000002e+00 0.0000000000000000e+00
0.0000000000000000e+00 5.1738004081000000e+00 0.0000000000000000e+00
ITEM: ATOMS id type xs ys zs fx fy fz
1 1 0.5 0.5 0.5 -4.94605e-10 -3.0183e-10 -0.209668
2 1 0 2.78992e-11 0 4.94605e-10 -6.39832e-10 0.209668
3 5 0.5 0 0.300666 -1.97405e-10 9.57583e-10 0.128702
4 5 0 0.5 0.199334 1.97406e-10 6.12382e-11 -0.128702
5 5 0 0.5 0.699334 9.05462e-10 -3.74728e-10 0.0508094
6 5 0.5 0 0.800666 -9.05466e-10 2.97569e-10 -0.0508094
