ITEM: TIMESTEP
0
ITEM: NUMBER OF ATOMS
6
ITEM: BOX BOUNDS xy xz yz pp pp pp
0.0000000000000000e+00 3.5492014448000000e+00 3.5488469999999999e-04
0.0000000000000000e+00 3.5488465600999999e+00 0.0000000000000000e+00
0.0000000000000000e+00 5.1732830798000000e+00 0.0000000000000000e+00
ITEM: ATOMS id type xs ys zs fx fy fz
1 1 0.5 0.5 0.5 -3.40988e-10 -3.84754e-10 -1.09042e-07
2 1 1 2.81782e-11 0 3.40967e-10 -7.05484e-10 1.09042e-07
3 5 0.5 0 0.300666 -5.45783e-10 1.02312e-09 5.22681e-06
4 5 1 0.5 0.199334 5.45865e-10 1.24646e-10 -5.22681e-06
5 5 1 0.5 0.699334 1.36881e-09 -3.66659e-10 -5.13012e-06
6 5 0.5 0 0.800666 -1.36887e-09 3.09129e-10 5.13012e-06
