ITEM: TIMESTEP
0
ITEM: NUMBER OF ATOMS
6
ITEM: BOX BOUNDS xy xz yz pp pp pp
0.0000000000000000e+00 3.5671081212000000e+00 1.7744232799999999e-02
0.0000000000000000e+00 3.5488465600999999e+00 5.1732830000000005e-04
0.0000000000000000e+00 5.1732830798000000e+00 0.0000000000000000e+00
ITEM: ATOMS id type xs ys zs fx fy fz
1 1 0.5 0.5 0.5 0.00129285 -5.76449e-06 -0.000272762
2 1 1 2.81782e-11 0 -0.00129285 5.76339e-06 0.000272762
3 5 0.5 0 0.300666 -0.000377271 8.71916e-06 0.000145528
4 5 1 0.5 0.199334 0.000377272 -8.71801e-06 -0.000145528
5 5 8.56626e-12 0.5 0.699334 -0.00105103 4.50972e-06 9.67571e-05
6 5 0.5 0 0.800666 0.00105103 -4.50978e-06 -9.67571e-05
