ITEM: TIMESTEP
0
ITEM: NUMBER OF ATOMS
6
ITEM: BOX BOUNDS xy xz yz pp pp pp
0.0000000000000000e+00 3.5488465600999999e+00 0.0000000000000000e+00
0.0000000000000000e+00 3.5843350257000002e+00 0.0000000000000000e+00
0.0000000000000000e+00 5.1732830798000000e+00 0.0000000000000000e+00
ITEM: ATOMS id type xs ys zs fx fy fz
1 1 0.5 0.5 0.5 -4.9492e-10 -3.02094e-10 -0.20969
2 1 0 2.78992e-11 0 4.94921e-10 -6.40105e-10 0.20969
3 5 0.5 0 0.300666 -1.97481e-10 9.5785e-10 0.128035
4 5 0 0.5 0.199334 1.97483e-10 6.14518e-11 -0.128035
5 5 0 0.5 0.699334 9.05717e-10 -3.74693e-10 0.0516024
6 5 0.5 0 0.800666 -9.05719e-10 2.97587e-10 -0.0516024
ITEM: TIMESTEP
21
ITEM: NUMBER OF ATOMS
6
ITEM: BOX BOUNDS xy xz yz pp pp pp
0.0000000000000000e+00 3.5488465600999999e+00 0.0000000000000000e+00
0.0000000000000000e+00 3.5843350257000002e+00 0.0000000000000000e+00
0.0000000000000000e+00 5.1732830798000000e+00 0.0000000000000000e+00
ITEM: ATOMS id type xs ys zs fx fy fz
1 1 0.5 0.5 0.499225 1.48126e-12 -1.0505e-11 -1.31405e-14
2 1 7.05754e-12 1.24828e-11 0.000775237 -1.49369e-12 -7.70023e-13 2.4869e-14
3 5 0.5 1.21099e-11 0.302653 -2.88991e-13 1.21456e-11 -9.15934e-15
4 5 7.04214e-12 0.5 0.197347 2.91989e-13 -8.41557e-12 4.4964e-15
5 5 7.07039e-12 0.5 0.698377 -2.95938e-12 4.85357e-12 -2.08722e-14
6 5 0.5 1.01594e-11 0.801623 2.97365e-12 2.69181e-12 1.49672e-14
