ITEM: TIMESTEP
0
ITEM: NUMBER OF ATOMS
6
ITEM: BOX BOUNDS xy xz yz pp pp pp
0.0000000000000000e+00 3.5665907929000000e+00 1.7744232799999999e-02
0.0000000000000000e+00 3.5492014448000000e+00 0.0000000000000000e+00
0.0000000000000000e+00 5.1732830798000000e+00 0.0000000000000000e+00
ITEM: ATOMS id type xs ys zs fx fy fz
1 1 0.5 0.5 0.5 -5.05674e-10 1.18462e-10 -0.00245223
2 1 1 2.81754e-11 0 5.05973e-10 -1.20702e-09 0.00245223
3 5 0.5 0 0.300666 -2.0659e-10 1.07761e-10 0.00153239
4 5 -4.33681e-19 0.5 0.199334 2.10557e-10 1.03851e-09 -0.00153239
5 5 -4.33681e-19 0.5 0.699334 9.15889e-10 -1.644e-10 0.000641037
6 5 0.5 0 0.800666 -9.20154e-10 1.0668e-10 -0.000641037
